 Entering Gaussian System, Link 0=g16
 Initial command:
 /home/g09/g16a03/g16/l1.exe "/home/scr/Gau-5997.inp" -scrdir="/home/scr/"
 Entering Link 1 = /home/g09/g16a03/g16/l1.exe PID=      5999.
  
 Copyright (c) 1988,1990,1992,1993,1995,1998,2003,2009,2016,
            Gaussian, Inc.  All Rights Reserved.
  
 This is part of the Gaussian(R) 16 program.  It is based on
 the Gaussian(R) 09 system (copyright 2009, Gaussian, Inc.),
 the Gaussian(R) 03 system (copyright 2003, Gaussian, Inc.),
 the Gaussian(R) 98 system (copyright 1998, Gaussian, Inc.),
 the Gaussian(R) 94 system (copyright 1995, Gaussian, Inc.),
 the Gaussian 92(TM) system (copyright 1992, Gaussian, Inc.),
 the Gaussian 90(TM) system (copyright 1990, Gaussian, Inc.),
 the Gaussian 88(TM) system (copyright 1988, Gaussian, Inc.),
 the Gaussian 86(TM) system (copyright 1986, Carnegie Mellon
 University), and the Gaussian 82(TM) system (copyright 1983,
 Carnegie Mellon University). Gaussian is a federally registered
 trademark of Gaussian, Inc.
  
 This software contains proprietary and confidential information,
 including trade secrets, belonging to Gaussian, Inc.
  
 This software is provided under written license and may be
 used, copied, transmitted, or stored only in accord with that
 written license.
  
 The following legend is applicable only to US Government
 contracts under FAR:
  
                    RESTRICTED RIGHTS LEGEND
  
 Use, reproduction and disclosure by the US Government is
 subject to restrictions as set forth in subparagraphs (a)
 and (c) of the Commercial Computer Software - Restricted
 Rights clause in FAR 52.227-19.
  
 Gaussian, Inc.
 340 Quinnipiac St., Bldg. 40, Wallingford CT 06492
  
  
 ---------------------------------------------------------------
 Warning -- This program may not be used in any manner that
 competes with the business of Gaussian, Inc. or will provide
 assistance to any competitor of Gaussian, Inc.  The licensee
 of this program is prohibited from giving any competitor of
 Gaussian, Inc. access to this program.  By using this program,
 the user acknowledges that Gaussian, Inc. is engaged in the
 business of creating and licensing software in the field of
 computational chemistry and represents and warrants to the
 licensee that it is not a competitor of Gaussian, Inc. and that
 it will not use this program in any manner prohibited above.
 ---------------------------------------------------------------
  

 Cite this work as:
 Gaussian 16, Revision A.03,
 M. J. Frisch, G. W. Trucks, H. B. Schlegel, G. E. Scuseria, 
 M. A. Robb, J. R. Cheeseman, G. Scalmani, V. Barone, 
 G. A. Petersson, H. Nakatsuji, X. Li, M. Caricato, A. V. Marenich, 
 J. Bloino, B. G. Janesko, R. Gomperts, B. Mennucci, H. P. Hratchian, 
 J. V. Ortiz, A. F. Izmaylov, J. L. Sonnenberg, D. Williams-Young, 
 F. Ding, F. Lipparini, F. Egidi, J. Goings, B. Peng, A. Petrone, 
 T. Henderson, D. Ranasinghe, V. G. Zakrzewski, J. Gao, N. Rega, 
 G. Zheng, W. Liang, M. Hada, M. Ehara, K. Toyota, R. Fukuda, 
 J. Hasegawa, M. Ishida, T. Nakajima, Y. Honda, O. Kitao, H. Nakai, 
 T. Vreven, K. Throssell, J. A. Montgomery, Jr., J. E. Peralta, 
 F. Ogliaro, M. J. Bearpark, J. J. Heyd, E. N. Brothers, K. N. Kudin, 
 V. N. Staroverov, T. A. Keith, R. Kobayashi, J. Normand, 
 K. Raghavachari, A. P. Rendell, J. C. Burant, S. S. Iyengar, 
 J. Tomasi, M. Cossi, J. M. Millam, M. Klene, C. Adamo, R. Cammi, 
 J. W. Ochterski, R. L. Martin, K. Morokuma, O. Farkas, 
 J. B. Foresman, and D. J. Fox, Gaussian, Inc., Wallingford CT, 2016.
 
 ******************************************
 Gaussian 16:  ES64L-G16RevA.03 25-Dec-2016
                 8-Jun-2020 
 ******************************************
 %mem=15GB
 %nproc=20
 Will use up to   20 processors via shared memory.
 --------------------------------------------------
 #P TEST b3lyp/6-311G** EmpiricalDispersion=GD3 opt
 --------------------------------------------------
 1/18=20,19=15,26=3,38=1/1,3;
 2/9=110,12=2,17=6,18=5,40=1/2;
 3/5=4,6=6,7=101,11=2,25=1,30=1,71=1,74=-5,124=31/1,2,3;
 4//1;
 5/5=2,38=5/2;
 6/7=2,8=2,9=2,10=2,28=1/1;
 7//1,2,3,16;
 1/18=20,19=15,26=3/3(2);
 2/9=110/2;
 99//99;
 2/9=110/2;
 3/5=4,6=6,7=101,11=2,25=1,30=1,71=1,74=-5,124=31/1,2,3;
 4/5=5,16=3,69=1/1;
 5/5=2,38=5/2;
 7//1,2,3,16;
 1/18=20,19=15,26=3/3(-5);
 2/9=110/2;
 6/7=2,8=2,9=2,10=2,19=2,28=1/1;
 99/9=1/99;
 Leave Link    1 at Mon Jun  8 09:28:57 2020, MaxMem=  2013265920 cpu:               2.2 elap:               0.1
 (Enter /home/g09/g16a03/g16/l101.exe)
 --------------------
 mono-C9-BTBT cif opt
 --------------------
 Symbolic Z-matrix:
 Charge =  0 Multiplicity = 1
 S                     3.895     3.184     14.913     
 S                     0.555     4.997     16.669     
 C                     3.042     3.421     12.273     
 C                     2.111     3.851     11.341     
 C                     0.972     4.536     11.801     
 C                     0.739     4.76      13.124     
 C                     3.718     3.43      18.453     
 C                     3.475     3.626     19.784     
 C                     2.322     4.286     20.218     
 C                     1.391     4.74      19.314     
 C                     1.621     4.532     17.972     
 C                     2.783     3.885     17.506     
 C                     2.788     3.814     16.083     
 C                     1.666     4.37      15.503     
 C                     1.662     4.304     14.078     
 C                     2.836     3.655     13.618     
 C                     2.293     3.535     9.871      
 C                     3.466     4.169     9.204      
 C                     3.638     3.746     7.761      
 C                     4.831     4.26      7.059      
 C                     4.987     3.777     5.63       
 C                     6.154     4.267     4.901      
 C                     6.317     3.771     3.49       
 C                     7.48      4.285     2.752      
 C                     7.622     3.843     1.428      
 H                     3.807     2.974     11.991     
 H                     0.355     4.848     11.178     
 H                    -0.028     5.212     13.394     
 H                     4.495     2.999     18.177     
 H                     4.087     3.314     20.412     
 H                     2.184     4.42      21.128     
 H                     0.623     5.177     19.602     
 H                     2.372     2.573     9.775      
 H                     1.491     3.808     9.4        
 H                     4.27      3.94      9.696      
 H                     3.363     5.134     9.239      
 H                     3.664     2.777     7.732      
 H                     2.852     4.029     7.268      
 H                     5.62      4.001     7.56       
 H                     4.793     5.229     7.055      
 H                     5.022     2.808     5.641      
 H                     4.192     4.032     5.136      
 H                     6.948     4.023     5.402      
 H                     6.112     5.236     4.878      
 H                     6.376     2.803     3.514      
 H                     5.516     4.        2.993      
 H                     7.43      5.254     2.744      
 H                     8.282     4.041     3.241      
 H                     8.407     4.236     1.041      
 H                     7.704     2.886     1.418      
 H                     6.85      4.103     0.92       
 
 ITRead=  0  0  0  0  0  0  0  0  0  0  0  0  0  0  0  0  0  0  0  0
 ITRead=  0  0  0  0  0  0  0  0  0  0  0  0  0  0  0  0  0  0  0  0
 ITRead=  0  0  0  0  0  0  0  0  0  0  0
 MicOpt= -1 -1 -1 -1 -1 -1 -1 -1 -1 -1 -1 -1 -1 -1 -1 -1 -1 -1 -1 -1
 MicOpt= -1 -1 -1 -1 -1 -1 -1 -1 -1 -1 -1 -1 -1 -1 -1 -1 -1 -1 -1 -1
 MicOpt= -1 -1 -1 -1 -1 -1 -1 -1 -1 -1 -1
 NAtoms=     51 NQM=       51 NQMF=       0 NMMI=      0 NMMIF=      0
                NMic=       0 NMicF=      0.
                    Isotopes and Nuclear Properties:
 (Nuclear quadrupole moments (NQMom) in fm**2, nuclear magnetic moments (NMagM)
  in nuclear magnetons)

  Atom         1           2           3           4           5           6           7           8           9          10
 IAtWgt=          32          32          12          12          12          12          12          12          12          12
 AtmWgt=  31.9720718  31.9720718  12.0000000  12.0000000  12.0000000  12.0000000  12.0000000  12.0000000  12.0000000  12.0000000
 NucSpn=           0           0           0           0           0           0           0           0           0           0
 AtZEff=   0.0000000   0.0000000   0.0000000   0.0000000   0.0000000   0.0000000   0.0000000   0.0000000   0.0000000   0.0000000
 NQMom=    0.0000000   0.0000000   0.0000000   0.0000000   0.0000000   0.0000000   0.0000000   0.0000000   0.0000000   0.0000000
 NMagM=    0.0000000   0.0000000   0.0000000   0.0000000   0.0000000   0.0000000   0.0000000   0.0000000   0.0000000   0.0000000
 AtZNuc=  16.0000000  16.0000000   6.0000000   6.0000000   6.0000000   6.0000000   6.0000000   6.0000000   6.0000000   6.0000000

  Atom        11          12          13          14          15          16          17          18          19          20
 IAtWgt=          12          12          12          12          12          12          12          12          12          12
 AtmWgt=  12.0000000  12.0000000  12.0000000  12.0000000  12.0000000  12.0000000  12.0000000  12.0000000  12.0000000  12.0000000
 NucSpn=           0           0           0           0           0           0           0           0           0           0
 AtZEff=   0.0000000   0.0000000   0.0000000   0.0000000   0.0000000   0.0000000   0.0000000   0.0000000   0.0000000   0.0000000
 NQMom=    0.0000000   0.0000000   0.0000000   0.0000000   0.0000000   0.0000000   0.0000000   0.0000000   0.0000000   0.0000000
 NMagM=    0.0000000   0.0000000   0.0000000   0.0000000   0.0000000   0.0000000   0.0000000   0.0000000   0.0000000   0.0000000
 AtZNuc=   6.0000000   6.0000000   6.0000000   6.0000000   6.0000000   6.0000000   6.0000000   6.0000000   6.0000000   6.0000000

  Atom        21          22          23          24          25          26          27          28          29          30
 IAtWgt=          12          12          12          12          12           1           1           1           1           1
 AtmWgt=  12.0000000  12.0000000  12.0000000  12.0000000  12.0000000   1.0078250   1.0078250   1.0078250   1.0078250   1.0078250
 NucSpn=           0           0           0           0           0           1           1           1           1           1
 AtZEff=   0.0000000   0.0000000   0.0000000   0.0000000   0.0000000   0.0000000   0.0000000   0.0000000   0.0000000   0.0000000
 NQMom=    0.0000000   0.0000000   0.0000000   0.0000000   0.0000000   0.0000000   0.0000000   0.0000000   0.0000000   0.0000000
 NMagM=    0.0000000   0.0000000   0.0000000   0.0000000   0.0000000   2.7928460   2.7928460   2.7928460   2.7928460   2.7928460
 AtZNuc=   6.0000000   6.0000000   6.0000000   6.0000000   6.0000000   1.0000000   1.0000000   1.0000000   1.0000000   1.0000000

  Atom        31          32          33          34          35          36          37          38          39          40
 IAtWgt=           1           1           1           1           1           1           1           1           1           1
 AtmWgt=   1.0078250   1.0078250   1.0078250   1.0078250   1.0078250   1.0078250   1.0078250   1.0078250   1.0078250   1.0078250
 NucSpn=           1           1           1           1           1           1           1           1           1           1
 AtZEff=   0.0000000   0.0000000   0.0000000   0.0000000   0.0000000   0.0000000   0.0000000   0.0000000   0.0000000   0.0000000
 NQMom=    0.0000000   0.0000000   0.0000000   0.0000000   0.0000000   0.0000000   0.0000000   0.0000000   0.0000000   0.0000000
 NMagM=    2.7928460   2.7928460   2.7928460   2.7928460   2.7928460   2.7928460   2.7928460   2.7928460   2.7928460   2.7928460
 AtZNuc=   1.0000000   1.0000000   1.0000000   1.0000000   1.0000000   1.0000000   1.0000000   1.0000000   1.0000000   1.0000000

  Atom        41          42          43          44          45          46          47          48          49          50
 IAtWgt=           1           1           1           1           1           1           1           1           1           1
 AtmWgt=   1.0078250   1.0078250   1.0078250   1.0078250   1.0078250   1.0078250   1.0078250   1.0078250   1.0078250   1.0078250
 NucSpn=           1           1           1           1           1           1           1           1           1           1
 AtZEff=   0.0000000   0.0000000   0.0000000   0.0000000   0.0000000   0.0000000   0.0000000   0.0000000   0.0000000   0.0000000
 NQMom=    0.0000000   0.0000000   0.0000000   0.0000000   0.0000000   0.0000000   0.0000000   0.0000000   0.0000000   0.0000000
 NMagM=    2.7928460   2.7928460   2.7928460   2.7928460   2.7928460   2.7928460   2.7928460   2.7928460   2.7928460   2.7928460
 AtZNuc=   1.0000000   1.0000000   1.0000000   1.0000000   1.0000000   1.0000000   1.0000000   1.0000000   1.0000000   1.0000000

  Atom        51
 IAtWgt=           1
 AtmWgt=   1.0078250
 NucSpn=           1
 AtZEff=   0.0000000
 NQMom=    0.0000000
 NMagM=    2.7928460
 AtZNuc=   1.0000000
 Leave Link  101 at Mon Jun  8 09:28:58 2020, MaxMem=  2013265920 cpu:               6.4 elap:               0.4
 (Enter /home/g09/g16a03/g16/l103.exe)

 GradGradGradGradGradGradGradGradGradGradGradGradGradGradGradGradGradGrad
 Berny optimization.
 Initialization pass.
                           ----------------------------
                           !    Initial Parameters    !
                           ! (Angstroms and Degrees)  !
 --------------------------                            --------------------------
 ! Name  Definition              Value          Derivative Info.                !
 --------------------------------------------------------------------------------
 ! R1    R(1,13)                 1.7295         estimate D2E/DX2                !
 ! R2    R(1,16)                 1.7379         estimate D2E/DX2                !
 ! R3    R(2,11)                 1.7465         estimate D2E/DX2                !
 ! R4    R(2,14)                 1.7283         estimate D2E/DX2                !
 ! R5    R(3,4)                  1.3857         estimate D2E/DX2                !
 ! R6    R(3,16)                 1.3807         estimate D2E/DX2                !
 ! R7    R(3,26)                 0.9298         estimate D2E/DX2                !
 ! R8    R(4,5)                  1.4065         estimate D2E/DX2                !
 ! R9    R(4,17)                 1.5146         estimate D2E/DX2                !
 ! R10   R(5,6)                  1.3619         estimate D2E/DX2                !
 ! R11   R(5,27)                 0.9307         estimate D2E/DX2                !
 ! R12   R(6,15)                 1.4036         estimate D2E/DX2                !
 ! R13   R(6,28)                 0.9303         estimate D2E/DX2                !
 ! R14   R(7,8)                  1.3671         estimate D2E/DX2                !
 ! R15   R(7,12)                 1.4064         estimate D2E/DX2                !
 ! R16   R(7,29)                 0.9304         estimate D2E/DX2                !
 ! R17   R(8,9)                  1.3976         estimate D2E/DX2                !
 ! R18   R(8,30)                 0.9307         estimate D2E/DX2                !
 ! R19   R(9,10)                 1.3748         estimate D2E/DX2                !
 ! R20   R(9,31)                 0.9301         estimate D2E/DX2                !
 ! R21   R(10,11)                1.3774         estimate D2E/DX2                !
 ! R22   R(10,32)                0.9294         estimate D2E/DX2                !
 ! R23   R(11,12)                1.4093         estimate D2E/DX2                !
 ! R24   R(12,13)                1.4248         estimate D2E/DX2                !
 ! R25   R(13,14)                1.38           estimate D2E/DX2                !
 ! R26   R(14,15)                1.4265         estimate D2E/DX2                !
 ! R27   R(15,16)                1.4181         estimate D2E/DX2                !
 ! R28   R(17,18)                1.4909         estimate D2E/DX2                !
 ! R29   R(17,33)                0.97           estimate D2E/DX2                !
 ! R30   R(17,34)                0.9693         estimate D2E/DX2                !
 ! R31   R(18,19)                1.5135         estimate D2E/DX2                !
 ! R32   R(18,35)                0.97           estimate D2E/DX2                !
 ! R33   R(18,36)                0.9711         estimate D2E/DX2                !
 ! R34   R(19,20)                1.4766         estimate D2E/DX2                !
 ! R35   R(19,37)                0.9698         estimate D2E/DX2                !
 ! R36   R(19,38)                0.97           estimate D2E/DX2                !
 ! R37   R(20,21)                1.5165         estimate D2E/DX2                !
 ! R38   R(20,39)                0.9698         estimate D2E/DX2                !
 ! R39   R(20,40)                0.9698         estimate D2E/DX2                !
 ! R40   R(21,22)                1.4606         estimate D2E/DX2                !
 ! R41   R(21,41)                0.9697         estimate D2E/DX2                !
 ! R42   R(21,42)                0.9701         estimate D2E/DX2                !
 ! R43   R(22,23)                1.5045         estimate D2E/DX2                !
 ! R44   R(22,43)                0.97           estimate D2E/DX2                !
 ! R45   R(22,44)                0.9702         estimate D2E/DX2                !
 ! R46   R(23,24)                1.4702         estimate D2E/DX2                !
 ! R47   R(23,45)                0.9701         estimate D2E/DX2                !
 ! R48   R(23,46)                0.9701         estimate D2E/DX2                !
 ! R49   R(24,25)                1.403          estimate D2E/DX2                !
 ! R50   R(24,47)                0.9703         estimate D2E/DX2                !
 ! R51   R(24,48)                0.9705         estimate D2E/DX2                !
 ! R52   R(25,49)                0.9594         estimate D2E/DX2                !
 ! R53   R(25,50)                0.9606         estimate D2E/DX2                !
 ! R54   R(25,51)                0.96           estimate D2E/DX2                !
 ! A1    A(13,1,16)             90.8789         estimate D2E/DX2                !
 ! A2    A(11,2,14)             90.8241         estimate D2E/DX2                !
 ! A3    A(4,3,16)             120.1562         estimate D2E/DX2                !
 ! A4    A(4,3,26)             119.8644         estimate D2E/DX2                !
 ! A5    A(16,3,26)            119.9793         estimate D2E/DX2                !
 ! A6    A(3,4,5)              118.3748         estimate D2E/DX2                !
 ! A7    A(3,4,17)             120.4843         estimate D2E/DX2                !
 ! A8    A(5,4,17)             121.0891         estimate D2E/DX2                !
 ! A9    A(4,5,6)              122.437          estimate D2E/DX2                !
 ! A10   A(4,5,27)             118.7652         estimate D2E/DX2                !
 ! A11   A(6,5,27)             118.7978         estimate D2E/DX2                !
 ! A12   A(5,6,15)             119.6262         estimate D2E/DX2                !
 ! A13   A(5,6,28)             120.1915         estimate D2E/DX2                !
 ! A14   A(15,6,28)            120.1823         estimate D2E/DX2                !
 ! A15   A(8,7,12)             119.4061         estimate D2E/DX2                !
 ! A16   A(8,7,29)             120.2421         estimate D2E/DX2                !
 ! A17   A(12,7,29)            120.3518         estimate D2E/DX2                !
 ! A18   A(7,8,9)              121.1083         estimate D2E/DX2                !
 ! A19   A(7,8,30)             119.4702         estimate D2E/DX2                !
 ! A20   A(9,8,30)             119.4214         estimate D2E/DX2                !
 ! A21   A(8,9,10)             120.6915         estimate D2E/DX2                !
 ! A22   A(8,9,31)             119.6201         estimate D2E/DX2                !
 ! A23   A(10,9,31)            119.6883         estimate D2E/DX2                !
 ! A24   A(9,10,11)            118.5363         estimate D2E/DX2                !
 ! A25   A(9,10,32)            120.738          estimate D2E/DX2                !
 ! A26   A(11,10,32)           120.7257         estimate D2E/DX2                !
 ! A27   A(2,11,10)            125.7866         estimate D2E/DX2                !
 ! A28   A(2,11,12)            112.2594         estimate D2E/DX2                !
 ! A29   A(10,11,12)           121.9514         estimate D2E/DX2                !
 ! A30   A(7,12,11)            118.2966         estimate D2E/DX2                !
 ! A31   A(7,12,13)            130.8468         estimate D2E/DX2                !
 ! A32   A(11,12,13)           110.8566         estimate D2E/DX2                !
 ! A33   A(1,13,12)            134.1102         estimate D2E/DX2                !
 ! A34   A(1,13,14)            112.5094         estimate D2E/DX2                !
 ! A35   A(12,13,14)           113.3803         estimate D2E/DX2                !
 ! A36   A(2,14,13)            112.66           estimate D2E/DX2                !
 ! A37   A(2,14,15)            133.5439         estimate D2E/DX2                !
 ! A38   A(13,14,15)           113.7956         estimate D2E/DX2                !
 ! A39   A(6,15,14)            131.7424         estimate D2E/DX2                !
 ! A40   A(6,15,16)            118.2043         estimate D2E/DX2                !
 ! A41   A(14,15,16)           110.0522         estimate D2E/DX2                !
 ! A42   A(1,16,3)             126.0897         estimate D2E/DX2                !
 ! A43   A(1,16,15)            112.7542         estimate D2E/DX2                !
 ! A44   A(3,16,15)            121.1364         estimate D2E/DX2                !
 ! A45   A(4,17,18)            116.1065         estimate D2E/DX2                !
 ! A46   A(4,17,33)            108.226          estimate D2E/DX2                !
 ! A47   A(4,17,34)            108.2659         estimate D2E/DX2                !
 ! A48   A(18,17,33)           108.2634         estimate D2E/DX2                !
 ! A49   A(18,17,34)           108.2892         estimate D2E/DX2                !
 ! A50   A(33,17,34)           107.3744         estimate D2E/DX2                !
 ! A51   A(17,18,19)           113.3968         estimate D2E/DX2                !
 ! A52   A(17,18,35)           108.9543         estimate D2E/DX2                !
 ! A53   A(17,18,36)           108.8443         estimate D2E/DX2                !
 ! A54   A(19,18,35)           108.8689         estimate D2E/DX2                !
 ! A55   A(19,18,36)           108.9132         estimate D2E/DX2                !
 ! A56   A(35,18,36)           107.7116         estimate D2E/DX2                !
 ! A57   A(18,19,20)           116.6028         estimate D2E/DX2                !
 ! A58   A(18,19,37)           108.1081         estimate D2E/DX2                !
 ! A59   A(18,19,38)           108.1156         estimate D2E/DX2                !
 ! A60   A(20,19,37)           108.1765         estimate D2E/DX2                !
 ! A61   A(20,19,38)           108.1492         estimate D2E/DX2                !
 ! A62   A(37,19,38)           107.3398         estimate D2E/DX2                !
 ! A63   A(19,20,21)           114.8503         estimate D2E/DX2                !
 ! A64   A(19,20,39)           108.5867         estimate D2E/DX2                !
 ! A65   A(19,20,40)           108.5502         estimate D2E/DX2                !
 ! A66   A(21,20,39)           108.5442         estimate D2E/DX2                !
 ! A67   A(21,20,40)           108.5662         estimate D2E/DX2                !
 ! A68   A(39,20,40)           107.5089         estimate D2E/DX2                !
 ! A69   A(20,21,22)           116.4653         estimate D2E/DX2                !
 ! A70   A(20,21,41)           108.1376         estimate D2E/DX2                !
 ! A71   A(20,21,42)           108.1697         estimate D2E/DX2                !
 ! A72   A(22,21,41)           108.1832         estimate D2E/DX2                !
 ! A73   A(22,21,42)           108.2054         estimate D2E/DX2                !
 ! A74   A(41,21,42)           107.3392         estimate D2E/DX2                !
 ! A75   A(21,22,23)           116.3625         estimate D2E/DX2                !
 ! A76   A(21,22,43)           108.1691         estimate D2E/DX2                !
 ! A77   A(21,22,44)           108.1983         estimate D2E/DX2                !
 ! A78   A(23,22,43)           108.2264         estimate D2E/DX2                !
 ! A79   A(23,22,44)           108.1637         estimate D2E/DX2                !
 ! A80   A(43,22,44)           107.3921         estimate D2E/DX2                !
 ! A81   A(22,23,24)           116.1824         estimate D2E/DX2                !
 ! A82   A(22,23,45)           108.2012         estimate D2E/DX2                !
 ! A83   A(22,23,46)           108.2527         estimate D2E/DX2                !
 ! A84   A(24,23,45)           108.2505         estimate D2E/DX2                !
 ! A85   A(24,23,46)           108.2687         estimate D2E/DX2                !
 ! A86   A(45,23,46)           107.3644         estimate D2E/DX2                !
 ! A87   A(23,24,25)           116.3355         estimate D2E/DX2                !
 ! A88   A(23,24,47)           108.211          estimate D2E/DX2                !
 ! A89   A(23,24,48)           108.2334         estimate D2E/DX2                !
 ! A90   A(25,24,47)           108.1821         estimate D2E/DX2                !
 ! A91   A(25,24,48)           108.2185         estimate D2E/DX2                !
 ! A92   A(47,24,48)           107.3263         estimate D2E/DX2                !
 ! A93   A(24,25,49)           109.5373         estimate D2E/DX2                !
 ! A94   A(24,25,50)           109.4102         estimate D2E/DX2                !
 ! A95   A(24,25,51)           109.4291         estimate D2E/DX2                !
 ! A96   A(49,25,50)           109.5158         estimate D2E/DX2                !
 ! A97   A(49,25,51)           109.4863         estimate D2E/DX2                !
 ! A98   A(50,25,51)           109.4486         estimate D2E/DX2                !
 ! D1    D(16,1,13,12)         179.5431         estimate D2E/DX2                !
 ! D2    D(16,1,13,14)          -0.5507         estimate D2E/DX2                !
 ! D3    D(13,1,16,3)         -177.4748         estimate D2E/DX2                !
 ! D4    D(13,1,16,15)           0.914          estimate D2E/DX2                !
 ! D5    D(14,2,11,10)         179.2633         estimate D2E/DX2                !
 ! D6    D(14,2,11,12)          -1.3207         estimate D2E/DX2                !
 ! D7    D(11,2,14,13)           0.8796         estimate D2E/DX2                !
 ! D8    D(11,2,14,15)        -179.3895         estimate D2E/DX2                !
 ! D9    D(16,3,4,5)             0.6342         estimate D2E/DX2                !
 ! D10   D(16,3,4,17)         -176.7774         estimate D2E/DX2                !
 ! D11   D(26,3,4,5)          -179.3581         estimate D2E/DX2                !
 ! D12   D(26,3,4,17)            3.2303         estimate D2E/DX2                !
 ! D13   D(4,3,16,1)           179.8966         estimate D2E/DX2                !
 ! D14   D(4,3,16,15)            1.6325         estimate D2E/DX2                !
 ! D15   D(26,3,16,1)           -0.1111         estimate D2E/DX2                !
 ! D16   D(26,3,16,15)        -178.3752         estimate D2E/DX2                !
 ! D17   D(3,4,5,6)             -1.6536         estimate D2E/DX2                !
 ! D18   D(3,4,5,27)           178.3184         estimate D2E/DX2                !
 ! D19   D(17,4,5,6)           175.7416         estimate D2E/DX2                !
 ! D20   D(17,4,5,27)           -4.2863         estimate D2E/DX2                !
 ! D21   D(3,4,17,18)          -65.6575         estimate D2E/DX2                !
 ! D22   D(3,4,17,33)           56.2659         estimate D2E/DX2                !
 ! D23   D(3,4,17,34)          172.354          estimate D2E/DX2                !
 ! D24   D(5,4,17,18)          117.002          estimate D2E/DX2                !
 ! D25   D(5,4,17,33)         -121.0746         estimate D2E/DX2                !
 ! D26   D(5,4,17,34)           -4.9866         estimate D2E/DX2                !
 ! D27   D(4,5,6,15)             0.3474         estimate D2E/DX2                !
 ! D28   D(4,5,6,28)          -179.5951         estimate D2E/DX2                !
 ! D29   D(27,5,6,15)         -179.6246         estimate D2E/DX2                !
 ! D30   D(27,5,6,28)            0.4329         estimate D2E/DX2                !
 ! D31   D(5,6,15,14)         -178.5523         estimate D2E/DX2                !
 ! D32   D(5,6,15,16)            1.893          estimate D2E/DX2                !
 ! D33   D(28,6,15,14)           1.3902         estimate D2E/DX2                !
 ! D34   D(28,6,15,16)        -178.1645         estimate D2E/DX2                !
 ! D35   D(12,7,8,9)            -0.8409         estimate D2E/DX2                !
 ! D36   D(12,7,8,30)          179.0922         estimate D2E/DX2                !
 ! D37   D(29,7,8,9)           179.1895         estimate D2E/DX2                !
 ! D38   D(29,7,8,30)           -0.8774         estimate D2E/DX2                !
 ! D39   D(8,7,12,11)            0.0221         estimate D2E/DX2                !
 ! D40   D(8,7,12,13)          179.9142         estimate D2E/DX2                !
 ! D41   D(29,7,12,11)         179.9916         estimate D2E/DX2                !
 ! D42   D(29,7,12,13)          -0.1163         estimate D2E/DX2                !
 ! D43   D(7,8,9,10)             0.9034         estimate D2E/DX2                !
 ! D44   D(7,8,9,31)          -179.0332         estimate D2E/DX2                !
 ! D45   D(30,8,9,10)         -179.0297         estimate D2E/DX2                !
 ! D46   D(30,8,9,31)            1.0336         estimate D2E/DX2                !
 ! D47   D(8,9,10,11)           -0.1095         estimate D2E/DX2                !
 ! D48   D(8,9,10,32)          179.8399         estimate D2E/DX2                !
 ! D49   D(31,9,10,11)         179.8271         estimate D2E/DX2                !
 ! D50   D(31,9,10,32)          -0.2235         estimate D2E/DX2                !
 ! D51   D(9,10,11,2)          178.6385         estimate D2E/DX2                !
 ! D52   D(9,10,11,12)          -0.7246         estimate D2E/DX2                !
 ! D53   D(32,10,11,2)          -1.3109         estimate D2E/DX2                !
 ! D54   D(32,10,11,12)        179.326          estimate D2E/DX2                !
 ! D55   D(2,11,12,7)         -178.6687         estimate D2E/DX2                !
 ! D56   D(2,11,12,13)           1.4186         estimate D2E/DX2                !
 ! D57   D(10,11,12,7)           0.773          estimate D2E/DX2                !
 ! D58   D(10,11,12,13)       -179.1397         estimate D2E/DX2                !
 ! D59   D(7,12,13,1)           -0.7604         estimate D2E/DX2                !
 ! D60   D(7,12,13,14)         179.334          estimate D2E/DX2                !
 ! D61   D(11,12,13,1)         179.1379         estimate D2E/DX2                !
 ! D62   D(11,12,13,14)         -0.7676         estimate D2E/DX2                !
 ! D63   D(1,13,14,2)          179.8442         estimate D2E/DX2                !
 ! D64   D(1,13,14,15)           0.0574         estimate D2E/DX2                !
 ! D65   D(12,13,14,2)          -0.2292         estimate D2E/DX2                !
 ! D66   D(12,13,14,15)        179.9839         estimate D2E/DX2                !
 ! D67   D(2,14,15,6)            1.309          estimate D2E/DX2                !
 ! D68   D(2,14,15,16)        -179.1088         estimate D2E/DX2                !
 ! D69   D(13,14,15,6)        -178.9624         estimate D2E/DX2                !
 ! D70   D(13,14,15,16)          0.6199         estimate D2E/DX2                !
 ! D71   D(6,15,16,1)          178.6171         estimate D2E/DX2                !
 ! D72   D(6,15,16,3)           -2.9041         estimate D2E/DX2                !
 ! D73   D(14,15,16,1)          -1.0293         estimate D2E/DX2                !
 ! D74   D(14,15,16,3)         177.4496         estimate D2E/DX2                !
 ! D75   D(4,17,18,19)         176.4744         estimate D2E/DX2                !
 ! D76   D(4,17,18,35)          55.0632         estimate D2E/DX2                !
 ! D77   D(4,17,18,36)         -62.1367         estimate D2E/DX2                !
 ! D78   D(33,17,18,19)         54.5707         estimate D2E/DX2                !
 ! D79   D(33,17,18,35)        -66.8404         estimate D2E/DX2                !
 ! D80   D(33,17,18,36)        175.9597         estimate D2E/DX2                !
 ! D81   D(34,17,18,19)        -61.5494         estimate D2E/DX2                !
 ! D82   D(34,17,18,35)        177.0395         estimate D2E/DX2                !
 ! D83   D(34,17,18,36)         59.8396         estimate D2E/DX2                !
 ! D84   D(17,18,19,20)       -175.971          estimate D2E/DX2                !
 ! D85   D(17,18,19,37)        -53.9092         estimate D2E/DX2                !
 ! D86   D(17,18,19,38)         61.9972         estimate D2E/DX2                !
 ! D87   D(35,18,19,20)        -54.512          estimate D2E/DX2                !
 ! D88   D(35,18,19,37)         67.5498         estimate D2E/DX2                !
 ! D89   D(35,18,19,38)       -176.5438         estimate D2E/DX2                !
 ! D90   D(36,18,19,20)         62.6786         estimate D2E/DX2                !
 ! D91   D(36,18,19,37)       -175.2596         estimate D2E/DX2                !
 ! D92   D(36,18,19,38)        -59.3531         estimate D2E/DX2                !
 ! D93   D(18,19,20,21)        178.1716         estimate D2E/DX2                !
 ! D94   D(18,19,20,39)         56.4687         estimate D2E/DX2                !
 ! D95   D(18,19,20,40)        -60.1243         estimate D2E/DX2                !
 ! D96   D(37,19,20,21)         56.1456         estimate D2E/DX2                !
 ! D97   D(37,19,20,39)        -65.5573         estimate D2E/DX2                !
 ! D98   D(37,19,20,40)        177.8497         estimate D2E/DX2                !
 ! D99   D(38,19,20,21)        -59.8142         estimate D2E/DX2                !
 ! D100  D(38,19,20,39)        178.4828         estimate D2E/DX2                !
 ! D101  D(38,19,20,40)         61.8898         estimate D2E/DX2                !
 ! D102  D(19,20,21,22)        179.8415         estimate D2E/DX2                !
 ! D103  D(19,20,21,41)        -58.1606         estimate D2E/DX2                !
 ! D104  D(19,20,21,42)         57.7889         estimate D2E/DX2                !
 ! D105  D(39,20,21,22)        -58.4324         estimate D2E/DX2                !
 ! D106  D(39,20,21,41)         63.5655         estimate D2E/DX2                !
 ! D107  D(39,20,21,42)        179.515          estimate D2E/DX2                !
 ! D108  D(40,20,21,22)         58.1462         estimate D2E/DX2                !
 ! D109  D(40,20,21,41)       -179.8559         estimate D2E/DX2                !
 ! D110  D(40,20,21,42)        -63.9065         estimate D2E/DX2                !
 ! D111  D(20,21,22,23)        179.1621         estimate D2E/DX2                !
 ! D112  D(20,21,22,43)         57.1541         estimate D2E/DX2                !
 ! D113  D(20,21,22,44)        -58.8892         estimate D2E/DX2                !
 ! D114  D(41,21,22,23)         57.1881         estimate D2E/DX2                !
 ! D115  D(41,21,22,43)        -64.8199         estimate D2E/DX2                !
 ! D116  D(41,21,22,44)        179.1369         estimate D2E/DX2                !
 ! D117  D(42,21,22,23)        -58.8041         estimate D2E/DX2                !
 ! D118  D(42,21,22,43)        179.1879         estimate D2E/DX2                !
 ! D119  D(42,21,22,44)         63.1447         estimate D2E/DX2                !
 ! D120  D(21,22,23,24)        178.9675         estimate D2E/DX2                !
 ! D121  D(21,22,23,45)        -59.0928         estimate D2E/DX2                !
 ! D122  D(21,22,23,46)         56.9634         estimate D2E/DX2                !
 ! D123  D(43,22,23,24)        -59.0546         estimate D2E/DX2                !
 ! D124  D(43,22,23,45)         62.8851         estimate D2E/DX2                !
 ! D125  D(43,22,23,46)        178.9413         estimate D2E/DX2                !
 ! D126  D(44,22,23,24)         57.0006         estimate D2E/DX2                !
 ! D127  D(44,22,23,45)        178.9403         estimate D2E/DX2                !
 ! D128  D(44,22,23,46)        -65.0035         estimate D2E/DX2                !
 ! D129  D(22,23,24,25)       -178.9081         estimate D2E/DX2                !
 ! D130  D(22,23,24,47)        -56.9441         estimate D2E/DX2                !
 ! D131  D(22,23,24,48)         59.0623         estimate D2E/DX2                !
 ! D132  D(45,23,24,25)         59.1782         estimate D2E/DX2                !
 ! D133  D(45,23,24,47)       -178.8577         estimate D2E/DX2                !
 ! D134  D(45,23,24,48)        -62.8514         estimate D2E/DX2                !
 ! D135  D(46,23,24,25)        -56.9125         estimate D2E/DX2                !
 ! D136  D(46,23,24,47)         65.0515         estimate D2E/DX2                !
 ! D137  D(46,23,24,48)       -178.9421         estimate D2E/DX2                !
 ! D138  D(23,24,25,49)        179.9706         estimate D2E/DX2                !
 ! D139  D(23,24,25,50)        -59.9719         estimate D2E/DX2                !
 ! D140  D(23,24,25,51)         59.9374         estimate D2E/DX2                !
 ! D141  D(47,24,25,49)         57.9913         estimate D2E/DX2                !
 ! D142  D(47,24,25,50)        178.0488         estimate D2E/DX2                !
 ! D143  D(47,24,25,51)        -62.0419         estimate D2E/DX2                !
 ! D144  D(48,24,25,49)        -57.992          estimate D2E/DX2                !
 ! D145  D(48,24,25,50)         62.0656         estimate D2E/DX2                !
 ! D146  D(48,24,25,51)       -178.0251         estimate D2E/DX2                !
 --------------------------------------------------------------------------------
 Trust Radius=3.00D-01 FncErr=1.00D-07 GrdErr=1.00D-06 EigMax=2.50D+02 EigMin=1.00D-04
 Number of steps in this run=    306 maximum allowed number of steps=    306.
 GradGradGradGradGradGradGradGradGradGradGradGradGradGradGradGradGradGrad

 Leave Link  103 at Mon Jun  8 09:28:58 2020, MaxMem=  2013265920 cpu:               0.4 elap:               0.1
 (Enter /home/g09/g16a03/g16/l202.exe)
 Stoichiometry    C23H26S2
 Framework group  C1[X(C23H26S2)]
 Deg. of freedom   147
 Full point group                 C1      NOp   1
 Largest Abelian subgroup         C1      NOp   1
 Largest concise Abelian subgroup C1      NOp   1
                         Standard orientation:                         
 ---------------------------------------------------------------------
 Center     Atomic      Atomic             Coordinates (Angstroms)
 Number     Number       Type             X           Y           Z
 ---------------------------------------------------------------------
      1         16           0        2.565675   -1.500497    0.557807
      2         16           0        5.214767    1.554829   -0.525428
      3          6           0        0.274441    0.078431    0.660823
      4          6           0       -0.352635    1.304407    0.505764
      5          6           0        0.418523    2.400346    0.078708
      6          6           0        1.757064    2.305334   -0.153831
      7          6           0        6.016754   -2.254026    0.176111
      8          6           0        7.365349   -2.348524   -0.027330
      9          6           0        8.115094   -1.238258   -0.425521
     10          6           0        7.515258   -0.014350   -0.605352
     11          6           0        6.159566    0.092469   -0.386685
     12          6           0        5.376783   -1.014294   -0.001542
     13          6           0        4.008490   -0.643178    0.140033
     14          6           0        3.774715    0.693385   -0.111698
     15          6           0        2.407102    1.074618    0.027195
     16          6           0        1.626684   -0.045454    0.411206
     17          6           0       -1.819380    1.465812    0.847068
     18          6           0       -2.778619    0.706102   -0.004681
     19          6           0       -4.218279    0.844165    0.441502
     20          6           0       -5.218547    0.047194   -0.296435
     21          6           0       -6.641202    0.182166    0.211012
     22          6           0       -7.660465   -0.588784   -0.496214
     23          6           0       -9.068003   -0.468363    0.021319
     24          6           0      -10.094417   -1.227448   -0.707840
     25          6           0      -11.411743   -1.098730   -0.242450
     26          1           0       -0.217430   -0.662002    0.933550
     27          1           0       -0.001768    3.220676   -0.050040
     28          1           0        2.238054    3.052119   -0.430335
     29          1           0        5.527523   -3.003526    0.430216
     30          1           0        7.791840   -3.165574    0.102311
     31          1           0        9.029238   -1.329088   -0.571091
     32          1           0        8.013576    0.724867   -0.867982
     33          1           0       -1.948341    1.191983    1.768636
     34          1           0       -2.042532    2.407422    0.790962
     35          1           0       -2.535200   -0.232796    0.007120
     36          1           0       -2.701435    1.019829   -0.920474
     37          1           0       -4.268187    0.599595    1.378610
     38          1           0       -4.466878    1.779290    0.373132
     39          1           0       -4.962745   -0.887278   -0.252492
     40          1           0       -5.196950    0.312049   -1.229069
     41          1           0       -6.655240   -0.081824    1.143974
     42          1           0       -6.888665    1.119356    0.171976
     43          1           0       -7.405835   -1.524380   -0.468000
     44          1           0       -7.655983   -0.314961   -1.426942
     45          1           0       -9.076274   -0.758069    0.947107
     46          1           0       -9.317061    0.469118    0.009086
     47          1           0      -10.073297   -0.950307   -1.637503
     48          1           0       -9.853547   -2.167189   -0.680847
     49          1           0      -11.997180   -1.630896   -0.785134
     50          1           0      -11.458925   -1.397898    0.669112
     51          1           0      -11.679013   -0.177934   -0.290918
 ---------------------------------------------------------------------
 Rotational constants (GHZ):           0.7067327           0.0420313           0.0401782
 Leave Link  202 at Mon Jun  8 09:28:58 2020, MaxMem=  2013265920 cpu:               0.4 elap:               0.1
 (Enter /home/g09/g16a03/g16/l301.exe)
 Standard basis: 6-311G(d,p) (5D, 7F)
 Ernie: Thresh=  0.10000D-02 Tol=  0.10000D-05 Strict=F.
 There are   647 symmetry adapted cartesian basis functions of A   symmetry.
 There are   622 symmetry adapted basis functions of A   symmetry.
   622 basis functions,  1036 primitive gaussians,   647 cartesian basis functions
    98 alpha electrons       98 beta electrons
       nuclear repulsion energy      2186.9774265704 Hartrees.
 IExCor=  402 DFT=T Ex+Corr=B3LYP ExCW=0 ScaHFX=  0.200000
 ScaDFX=  0.800000  0.720000  1.000000  0.810000 ScalE2=  1.000000  1.000000
 IRadAn=      5 IRanWt=     -1 IRanGd=            0 ICorTp=0 IEmpDi=131
 NAtoms=   51 NActive=   51 NUniq=   51 SFac= 1.00D+00 NAtFMM=   60 NAOKFM=F Big=F
 Integral buffers will be    131072 words long.
 Raffenetti 2 integral format.
 Two-electron integral symmetry is turned on.
 R6Disp:  Grimme-D3 Dispersion energy=       -0.0466240661 Hartrees.
 Nuclear repulsion after empirical dispersion term =     2186.9308025043 Hartrees.
 Leave Link  301 at Mon Jun  8 09:28:59 2020, MaxMem=  2013265920 cpu:               2.0 elap:               0.2
 (Enter /home/g09/g16a03/g16/l302.exe)
 NPDir=0 NMtPBC=     1 NCelOv=     1 NCel=       1 NClECP=     1 NCelD=      1
         NCelK=      1 NCelE2=     1 NClLst=     1 CellRange=     0.0.
 One-electron integrals computed using PRISM.
 One-electron integral symmetry used in STVInt
 NBasis=   622 RedAO= T EigKep=  1.17D-04  NBF=   622
 NBsUse=   622 1.00D-06 EigRej= -1.00D+00 NBFU=   622
 Precomputing XC quadrature grid using
 IXCGrd= 4 IRadAn=           5 IRanWt=          -1 IRanGd=           0 AccXCQ= 0.00D+00.
 Generated NRdTot=       0 NPtTot=           0 NUsed=           0 NTot=          32
 NSgBfM=   553   553   553   553   553 MxSgAt=    51 MxSgA2=    51.
 Leave Link  302 at Mon Jun  8 09:29:00 2020, MaxMem=  2013265920 cpu:              17.9 elap:               1.0
 (Enter /home/g09/g16a03/g16/l303.exe)
 DipDrv:  MaxL=1.
 Leave Link  303 at Mon Jun  8 09:29:00 2020, MaxMem=  2013265920 cpu:               1.9 elap:               0.2
 (Enter /home/g09/g16a03/g16/l401.exe)
 ExpMin= 7.71D-02 ExpMax= 9.34D+04 ExpMxC= 3.17D+03 IAcc=3 IRadAn=         5 AccDes= 0.00D+00
 Harris functional with IExCor=  402 and IRadAn=       5 diagonalized for initial guess.
 HarFok:  IExCor=  402 AccDes= 0.00D+00 IRadAn=         5 IDoV= 1 UseB2=F ITyADJ=14
 ICtDFT=  3500011 ScaDFX=  1.000000  1.000000  1.000000  1.000000
 FoFCou: FMM=F IPFlag=           0 FMFlag=      100000 FMFlg1=           0
         NFxFlg=           0 DoJE=T BraDBF=F KetDBF=T FulRan=T
         wScrn=  0.000000 ICntrl=       500 IOpCl=  0 I1Cent=   200000004 NGrid=           0
         NMat0=    1 NMatS0=      1 NMatT0=    0 NMatD0=    1 NMtDS0=    0 NMtDT0=    0
 Petite list used in FoFCou.
 Harris En= -1688.86285503175    
 JPrj=0 DoOrth=F DoCkMO=F.
 Leave Link  401 at Mon Jun  8 09:29:04 2020, MaxMem=  2013265920 cpu:              60.1 elap:               3.1
 (Enter /home/g09/g16a03/g16/l502.exe)
 Integral symmetry usage will be decided dynamically.
 Closed shell SCF:
 Using DIIS extrapolation, IDIIS=  1040.
 NGot=  2013265920 LenX=  2012409262 LenY=  2011990006
 Requested convergence on RMS density matrix=1.00D-08 within 128 cycles.
 Requested convergence on MAX density matrix=1.00D-06.
 Requested convergence on             energy=1.00D-06.
 No special actions if energy rises.
 Fock matrices will be formed incrementally for  20 cycles.
 Integral accuracy reduced to 1.0D-05 until final iterations.

 Cycle   1  Pass 0  IDiag  1:
 FoFJK:  IHMeth= 1 ICntrl=       0 DoSepK=F KAlg= 0 I1Cent=           0 FoldK=F
 IRaf= 540000000 NMat=       1 IRICut=       1 DoRegI=T DoRafI=F ISym2E= 0 IDoP0=0 IntGTp=1.
 FoFCou: FMM=F IPFlag=           0 FMFlag=      100000 FMFlg1=           0
         NFxFlg=           0 DoJE=F BraDBF=F KetDBF=F FulRan=T
         wScrn=  0.000000 ICntrl=         0 IOpCl=  0 I1Cent=           0 NGrid=           0
         NMat0=    1 NMatS0=      1 NMatT0=    0 NMatD0=    1 NMtDS0=    0 NMtDT0=    0
 Symmetry not used in FoFCou.
 E= -1687.29089627264    
 DIIS: error= 4.57D-02 at cycle   1 NSaved=   1.
 NSaved= 1 IEnMin= 1 EnMin= -1687.29089627264     IErMin= 1 ErrMin= 4.57D-02
 ErrMax= 4.57D-02  0.00D+00 EMaxC= 1.00D-01 BMatC= 1.17D+00 BMatP= 1.17D+00
 IDIUse=3 WtCom= 5.43D-01 WtEn= 4.57D-01
 Coeff-Com:  0.100D+01
 Coeff-En:   0.100D+01
 Coeff:      0.100D+01
 Gap=     0.330 Goal=   None    Shift=    0.000
 GapD=    0.330 DampG=1.000 DampE=0.500 DampFc=0.5000 IDamp=-1.
 Damping current iteration by 5.00D-01
 RMSDP=3.36D-03 MaxDP=1.65D-01              OVMax= 2.96D-01

 Cycle   2  Pass 0  IDiag  1:
 RMSU=  1.66D-03    CP:  9.71D-01
 E= -1687.78324918459     Delta-E=       -0.492352911953 Rises=F Damp=T
 DIIS: error= 7.93D-03 at cycle   2 NSaved=   2.
 NSaved= 2 IEnMin= 2 EnMin= -1687.78324918459     IErMin= 2 ErrMin= 7.93D-03
 ErrMax= 7.93D-03  0.00D+00 EMaxC= 1.00D-01 BMatC= 6.22D-02 BMatP= 1.17D+00
 IDIUse=3 WtCom= 9.21D-01 WtEn= 7.93D-02
 Coeff-Com:  0.412D-01 0.959D+00
 Coeff-En:   0.133D+00 0.867D+00
 Coeff:      0.485D-01 0.952D+00
 Gap=     0.298 Goal=   None    Shift=    0.000
 RMSDP=1.08D-03 MaxDP=7.78D-02 DE=-4.92D-01 OVMax= 2.78D-01

 Cycle   3  Pass 0  IDiag  1:
 RMSU=  8.51D-04    CP:  9.72D-01  6.04D-01
 E= -1688.39842293568     Delta-E=       -0.615173751084 Rises=F Damp=F
 DIIS: error= 7.24D-03 at cycle   3 NSaved=   3.
 NSaved= 3 IEnMin= 3 EnMin= -1688.39842293568     IErMin= 3 ErrMin= 7.24D-03
 ErrMax= 7.24D-03  0.00D+00 EMaxC= 1.00D-01 BMatC= 2.96D-02 BMatP= 6.22D-02
 IDIUse=3 WtCom= 9.28D-01 WtEn= 7.24D-02
 Coeff-Com: -0.332D-01 0.388D+00 0.645D+00
 Coeff-En:   0.000D+00 0.000D+00 0.100D+01
 Coeff:     -0.308D-01 0.360D+00 0.671D+00
 Gap=     0.170 Goal=   None    Shift=    0.000
 RMSDP=4.77D-04 MaxDP=3.92D-02 DE=-6.15D-01 OVMax= 9.28D-02

 Cycle   4  Pass 0  IDiag  1:
 RMSU=  3.27D-04    CP:  9.71D-01  7.39D-01  6.88D-01
 E= -1688.41815028625     Delta-E=       -0.019727350568 Rises=F Damp=F
 DIIS: error= 5.72D-03 at cycle   4 NSaved=   4.
 NSaved= 4 IEnMin= 4 EnMin= -1688.41815028625     IErMin= 4 ErrMin= 5.72D-03
 ErrMax= 5.72D-03  0.00D+00 EMaxC= 1.00D-01 BMatC= 1.19D-02 BMatP= 2.96D-02
 IDIUse=3 WtCom= 9.43D-01 WtEn= 5.72D-02
 Coeff-Com: -0.246D-01 0.131D+00 0.419D+00 0.474D+00
 Coeff-En:   0.000D+00 0.000D+00 0.300D+00 0.700D+00
 Coeff:     -0.232D-01 0.124D+00 0.412D+00 0.487D+00
 Gap=     0.157 Goal=   None    Shift=    0.000
 RMSDP=2.19D-04 MaxDP=8.74D-03 DE=-1.97D-02 OVMax= 4.45D-02

 Cycle   5  Pass 0  IDiag  1:
 RMSU=  1.45D-04    CP:  9.69D-01  7.24D-01  7.73D-01  5.55D-01
 E= -1688.43011280922     Delta-E=       -0.011962522975 Rises=F Damp=F
 DIIS: error= 1.96D-03 at cycle   5 NSaved=   5.
 NSaved= 5 IEnMin= 5 EnMin= -1688.43011280922     IErMin= 5 ErrMin= 1.96D-03
 ErrMax= 1.96D-03  0.00D+00 EMaxC= 1.00D-01 BMatC= 1.45D-03 BMatP= 1.19D-02
 IDIUse=3 WtCom= 9.80D-01 WtEn= 1.96D-02
 Coeff-Com: -0.107D-01 0.334D-01 0.187D+00 0.309D+00 0.481D+00
 Coeff-En:   0.000D+00 0.000D+00 0.000D+00 0.748D-01 0.925D+00
 Coeff:     -0.105D-01 0.328D-01 0.184D+00 0.304D+00 0.490D+00
 Gap=     0.155 Goal=   None    Shift=    0.000
 RMSDP=8.28D-05 MaxDP=4.58D-03 DE=-1.20D-02 OVMax= 1.27D-02

 Cycle   6  Pass 0  IDiag  1:
 RMSU=  3.97D-05    CP:  9.70D-01  7.15D-01  7.88D-01  6.32D-01  5.50D-01
 E= -1688.43150513690     Delta-E=       -0.001392327675 Rises=F Damp=F
 DIIS: error= 5.15D-04 at cycle   6 NSaved=   6.
 NSaved= 6 IEnMin= 6 EnMin= -1688.43150513690     IErMin= 6 ErrMin= 5.15D-04
 ErrMax= 5.15D-04  0.00D+00 EMaxC= 1.00D-01 BMatC= 1.34D-04 BMatP= 1.45D-03
 IDIUse=3 WtCom= 9.95D-01 WtEn= 5.15D-03
 Coeff-Com: -0.260D-02 0.157D-02 0.492D-01 0.107D+00 0.283D+00 0.562D+00
 Coeff-En:   0.000D+00 0.000D+00 0.000D+00 0.000D+00 0.637D-01 0.936D+00
 Coeff:     -0.259D-02 0.156D-02 0.489D-01 0.107D+00 0.282D+00 0.564D+00
 Gap=     0.155 Goal=   None    Shift=    0.000
 RMSDP=2.34D-05 MaxDP=1.48D-03 DE=-1.39D-03 OVMax= 3.72D-03

 Cycle   7  Pass 0  IDiag  1:
 RMSU=  1.20D-05    CP:  9.70D-01  7.16D-01  7.90D-01  6.30D-01  6.37D-01
                    CP:  6.16D-01
 E= -1688.43163389469     Delta-E=       -0.000128757790 Rises=F Damp=F
 DIIS: error= 1.47D-04 at cycle   7 NSaved=   7.
 NSaved= 7 IEnMin= 7 EnMin= -1688.43163389469     IErMin= 7 ErrMin= 1.47D-04
 ErrMax= 1.47D-04  0.00D+00 EMaxC= 1.00D-01 BMatC= 1.29D-05 BMatP= 1.34D-04
 IDIUse=3 WtCom= 9.99D-01 WtEn= 1.47D-03
 Coeff-Com: -0.729D-03-0.114D-02 0.173D-01 0.421D-01 0.128D+00 0.329D+00
 Coeff-Com:  0.485D+00
 Coeff-En:   0.000D+00 0.000D+00 0.000D+00 0.000D+00 0.000D+00 0.224D-01
 Coeff-En:   0.978D+00
 Coeff:     -0.728D-03-0.114D-02 0.172D-01 0.420D-01 0.128D+00 0.329D+00
 Coeff:      0.486D+00
 Gap=     0.156 Goal=   None    Shift=    0.000
 RMSDP=8.09D-06 MaxDP=6.10D-04 DE=-1.29D-04 OVMax= 1.30D-03

 Initial convergence to 1.0D-05 achieved.  Increase integral accuracy.
 Cycle   8  Pass 1  IDiag  1:
 E= -1688.43163404892     Delta-E=       -0.000000154234 Rises=F Damp=F
 DIIS: error= 1.06D-04 at cycle   1 NSaved=   1.
 NSaved= 1 IEnMin= 1 EnMin= -1688.43163404892     IErMin= 1 ErrMin= 1.06D-04
 ErrMax= 1.06D-04  0.00D+00 EMaxC= 1.00D-01 BMatC= 3.00D-06 BMatP= 3.00D-06
 IDIUse=3 WtCom= 9.99D-01 WtEn= 1.06D-03
 Coeff-Com:  0.100D+01
 Coeff-En:   0.100D+01
 Coeff:      0.100D+01
 Gap=     0.156 Goal=   None    Shift=    0.000
 RMSDP=8.09D-06 MaxDP=6.10D-04 DE=-1.54D-07 OVMax= 9.56D-04

 Cycle   9  Pass 1  IDiag  1:
 RMSU=  5.17D-05    CP:  1.00D+00
 E= -1688.43163160570     Delta-E=        0.000002443222 Rises=F Damp=F
 DIIS: error= 9.10D-05 at cycle   2 NSaved=   2.
 NSaved= 2 IEnMin= 1 EnMin= -1688.43163404892     IErMin= 2 ErrMin= 9.10D-05
 ErrMax= 9.10D-05  0.00D+00 EMaxC= 1.00D-01 BMatC= 5.02D-06 BMatP= 3.00D-06
 IDIUse=1 WtCom= 1.00D+00 WtEn= 0.00D+00
 Coeff-Com:  0.577D+00 0.423D+00
 Coeff:      0.577D+00 0.423D+00
 Gap=     0.156 Goal=   None    Shift=    0.000
 RMSDP=5.29D-06 MaxDP=3.62D-04 DE= 2.44D-06 OVMax= 8.43D-04

 Cycle  10  Pass 1  IDiag  1:
 RMSU=  5.28D-06    CP:  1.00D+00  9.95D-01
 E= -1688.43163658598     Delta-E=       -0.000004980280 Rises=F Damp=F
 DIIS: error= 3.08D-05 at cycle   3 NSaved=   3.
 NSaved= 3 IEnMin= 3 EnMin= -1688.43163658598     IErMin= 3 ErrMin= 3.08D-05
 ErrMax= 3.08D-05  0.00D+00 EMaxC= 1.00D-01 BMatC= 4.48D-07 BMatP= 3.00D-06
 IDIUse=1 WtCom= 1.00D+00 WtEn= 0.00D+00
 Coeff-Com:  0.428D-01 0.230D+00 0.727D+00
 Coeff:      0.428D-01 0.230D+00 0.727D+00
 Gap=     0.156 Goal=   None    Shift=    0.000
 RMSDP=1.56D-06 MaxDP=1.02D-04 DE=-4.98D-06 OVMax= 2.61D-04

 Cycle  11  Pass 1  IDiag  1:
 RMSU=  8.21D-07    CP:  1.00D+00  1.00D+00  7.64D-01
 E= -1688.43163700054     Delta-E=       -0.000000414562 Rises=F Damp=F
 DIIS: error= 1.24D-05 at cycle   4 NSaved=   4.
 NSaved= 4 IEnMin= 4 EnMin= -1688.43163700054     IErMin= 4 ErrMin= 1.24D-05
 ErrMax= 1.24D-05  0.00D+00 EMaxC= 1.00D-01 BMatC= 7.94D-08 BMatP= 4.48D-07
 IDIUse=1 WtCom= 1.00D+00 WtEn= 0.00D+00
 Coeff-Com:  0.105D-03 0.129D+00 0.472D+00 0.399D+00
 Coeff:      0.105D-03 0.129D+00 0.472D+00 0.399D+00
 Gap=     0.156 Goal=   None    Shift=    0.000
 RMSDP=5.52D-07 MaxDP=2.65D-05 DE=-4.15D-07 OVMax= 8.23D-05

 Cycle  12  Pass 1  IDiag  1:
 RMSU=  1.72D-07    CP:  1.00D+00  1.00D+00  7.86D-01  3.78D-01
 E= -1688.43163708262     Delta-E=       -0.000000082078 Rises=F Damp=F
 DIIS: error= 3.19D-06 at cycle   5 NSaved=   5.
 NSaved= 5 IEnMin= 5 EnMin= -1688.43163708262     IErMin= 5 ErrMin= 3.19D-06
 ErrMax= 3.19D-06  0.00D+00 EMaxC= 1.00D-01 BMatC= 2.69D-09 BMatP= 7.94D-08
 IDIUse=1 WtCom= 1.00D+00 WtEn= 0.00D+00
 Coeff-Com: -0.194D-02 0.701D-01 0.260D+00 0.242D+00 0.430D+00
 Coeff:     -0.194D-02 0.701D-01 0.260D+00 0.242D+00 0.430D+00
 Gap=     0.156 Goal=   None    Shift=    0.000
 RMSDP=9.71D-08 MaxDP=3.45D-06 DE=-8.21D-08 OVMax= 1.81D-05

 Cycle  13  Pass 1  IDiag  1:
 RMSU=  7.01D-08    CP:  1.00D+00  1.00D+00  7.85D-01  4.09D-01  6.45D-01
 E= -1688.43163708537     Delta-E=       -0.000000002748 Rises=F Damp=F
 DIIS: error= 6.82D-07 at cycle   6 NSaved=   6.
 NSaved= 6 IEnMin= 6 EnMin= -1688.43163708537     IErMin= 6 ErrMin= 6.82D-07
 ErrMax= 6.82D-07  0.00D+00 EMaxC= 1.00D-01 BMatC= 1.55D-10 BMatP= 2.69D-09
 IDIUse=1 WtCom= 1.00D+00 WtEn= 0.00D+00
 Coeff-Com: -0.106D-02 0.257D-01 0.963D-01 0.902D-01 0.237D+00 0.552D+00
 Coeff:     -0.106D-02 0.257D-01 0.963D-01 0.902D-01 0.237D+00 0.552D+00
 Gap=     0.156 Goal=   None    Shift=    0.000
 RMSDP=2.48D-08 MaxDP=1.82D-06 DE=-2.75D-09 OVMax= 5.07D-06

 Cycle  14  Pass 1  IDiag  1:
 RMSU=  1.67D-08    CP:  1.00D+00  1.00D+00  7.85D-01  4.09D-01  7.01D-01
                    CP:  7.78D-01
 E= -1688.43163708554     Delta-E=       -0.000000000172 Rises=F Damp=F
 DIIS: error= 7.95D-08 at cycle   7 NSaved=   7.
 NSaved= 7 IEnMin= 7 EnMin= -1688.43163708554     IErMin= 7 ErrMin= 7.95D-08
 ErrMax= 7.95D-08  0.00D+00 EMaxC= 1.00D-01 BMatC= 6.15D-12 BMatP= 1.55D-10
 IDIUse=1 WtCom= 1.00D+00 WtEn= 0.00D+00
 Coeff-Com: -0.225D-03 0.361D-02 0.137D-01 0.123D-01 0.484D-01 0.209D+00
 Coeff-Com:  0.713D+00
 Coeff:     -0.225D-03 0.361D-02 0.137D-01 0.123D-01 0.484D-01 0.209D+00
 Coeff:      0.713D+00
 Gap=     0.156 Goal=   None    Shift=    0.000
 RMSDP=6.03D-09 MaxDP=2.99D-07 DE=-1.72D-10 OVMax= 1.05D-06

 SCF Done:  E(RB3LYP) =  -1688.43163709     A.U. after   14 cycles
            NFock= 14  Conv=0.60D-08     -V/T= 1.9988
 KE= 1.690520818113D+03 PE=-8.340604080530D+03 EE= 2.774720822827D+03
 Leave Link  502 at Mon Jun  8 09:30:19 2020, MaxMem=  2013265920 cpu:            1487.6 elap:              74.5
 (Enter /home/g09/g16a03/g16/l601.exe)
 Copying SCF densities to generalized density rwf, IOpCl= 0 IROHF=0.

 **********************************************************************

            Population analysis using the SCF density.

 **********************************************************************

 Orbital symmetries:
       Occupied  (A) (A) (A) (A) (A) (A) (A) (A) (A) (A) (A) (A)
                 (A) (A) (A) (A) (A) (A) (A) (A) (A) (A) (A) (A)
                 (A) (A) (A) (A) (A) (A) (A) (A) (A) (A) (A) (A)
                 (A) (A) (A) (A) (A) (A) (A) (A) (A) (A) (A) (A)
                 (A) (A) (A) (A) (A) (A) (A) (A) (A) (A) (A) (A)
                 (A) (A) (A) (A) (A) (A) (A) (A) (A) (A) (A) (A)
                 (A) (A) (A) (A) (A) (A) (A) (A) (A) (A) (A) (A)
                 (A) (A) (A) (A) (A) (A) (A) (A) (A) (A) (A) (A)
                 (A) (A)
       Virtual   (A) (A) (A) (A) (A) (A) (A) (A) (A) (A) (A) (A)
                 (A) (A) (A) (A) (A) (A) (A) (A) (A) (A) (A) (A)
                 (A) (A) (A) (A) (A) (A) (A) (A) (A) (A) (A) (A)
                 (A) (A) (A) (A) (A) (A) (A) (A) (A) (A) (A) (A)
                 (A) (A) (A) (A) (A) (A) (A) (A) (A) (A) (A) (A)
                 (A) (A) (A) (A) (A) (A) (A) (A) (A) (A) (A) (A)
                 (A) (A) (A) (A) (A) (A) (A) (A) (A) (A) (A) (A)
                 (A) (A) (A) (A) (A) (A) (A) (A) (A) (A) (A) (A)
                 (A) (A) (A) (A) (A) (A) (A) (A) (A) (A) (A) (A)
                 (A) (A) (A) (A) (A) (A) (A) (A) (A) (A) (A) (A)
                 (A) (A) (A) (A) (A) (A) (A) (A) (A) (A) (A) (A)
                 (A) (A) (A) (A) (A) (A) (A) (A) (A) (A) (A) (A)
                 (A) (A) (A) (A) (A) (A) (A) (A) (A) (A) (A) (A)
                 (A) (A) (A) (A) (A) (A) (A) (A) (A) (A) (A) (A)
                 (A) (A) (A) (A) (A) (A) (A) (A) (A) (A) (A) (A)
                 (A) (A) (A) (A) (A) (A) (A) (A) (A) (A) (A) (A)
                 (A) (A) (A) (A) (A) (A) (A) (A) (A) (A) (A) (A)
                 (A) (A) (A) (A) (A) (A) (A) (A) (A) (A) (A) (A)
                 (A) (A) (A) (A) (A) (A) (A) (A) (A) (A) (A) (A)
                 (A) (A) (A) (A) (A) (A) (A) (A) (A) (A) (A) (A)
                 (A) (A) (A) (A) (A) (A) (A) (A) (A) (A) (A) (A)
                 (A) (A) (A) (A) (A) (A) (A) (A) (A) (A) (A) (A)
                 (A) (A) (A) (A) (A) (A) (A) (A) (A) (A) (A) (A)
                 (A) (A) (A) (A) (A) (A) (A) (A) (A) (A) (A) (A)
                 (A) (A) (A) (A) (A) (A) (A) (A) (A) (A) (A) (A)
                 (A) (A) (A) (A) (A) (A) (A) (A) (A) (A) (A) (A)
                 (A) (A) (A) (A) (A) (A) (A) (A) (A) (A) (A) (A)
                 (A) (A) (A) (A) (A) (A) (A) (A) (A) (A) (A) (A)
                 (A) (A) (A) (A) (A) (A) (A) (A) (A) (A) (A) (A)
                 (A) (A) (A) (A) (A) (A) (A) (A) (A) (A) (A) (A)
                 (A) (A) (A) (A) (A) (A) (A) (A) (A) (A) (A) (A)
                 (A) (A) (A) (A) (A) (A) (A) (A) (A) (A) (A) (A)
                 (A) (A) (A) (A) (A) (A) (A) (A) (A) (A) (A) (A)
                 (A) (A) (A) (A) (A) (A) (A) (A) (A) (A) (A) (A)
                 (A) (A) (A) (A) (A) (A) (A) (A) (A) (A) (A) (A)
                 (A) (A) (A) (A) (A) (A) (A) (A) (A) (A) (A) (A)
                 (A) (A) (A) (A) (A) (A) (A) (A) (A) (A) (A) (A)
                 (A) (A) (A) (A) (A) (A) (A) (A) (A) (A) (A) (A)
                 (A) (A) (A) (A) (A) (A) (A) (A) (A) (A) (A) (A)
                 (A) (A) (A) (A) (A) (A) (A) (A) (A) (A) (A) (A)
                 (A) (A) (A) (A) (A) (A) (A) (A) (A) (A) (A) (A)
                 (A) (A) (A) (A) (A) (A) (A) (A) (A) (A) (A) (A)
                 (A) (A) (A) (A) (A) (A) (A) (A) (A) (A) (A) (A)
                 (A) (A) (A) (A) (A) (A) (A) (A)
 The electronic state is 1-A.
 Alpha  occ. eigenvalues --  -88.87494 -88.87441 -10.20786 -10.20732 -10.20587
 Alpha  occ. eigenvalues --  -10.20484 -10.19152 -10.18986 -10.18002 -10.16410
 Alpha  occ. eigenvalues --  -10.16199 -10.16136 -10.16094 -10.15775 -10.15573
 Alpha  occ. eigenvalues --  -10.15341 -10.14119 -10.13161 -10.12634 -10.12436
 Alpha  occ. eigenvalues --  -10.12158 -10.11924 -10.11875 -10.11293 -10.09935
 Alpha  occ. eigenvalues --   -7.96199  -7.96140  -5.92525  -5.92465  -5.92161
 Alpha  occ. eigenvalues --   -5.92103  -5.91698  -5.91642  -0.92295  -0.88606
 Alpha  occ. eigenvalues --   -0.85429  -0.84573  -0.83292  -0.82332  -0.80644
 Alpha  occ. eigenvalues --   -0.78376  -0.78247  -0.75794  -0.74878  -0.72658
 Alpha  occ. eigenvalues --   -0.70627  -0.69678  -0.66567  -0.64143  -0.63254
 Alpha  occ. eigenvalues --   -0.61948  -0.61195  -0.60810  -0.60676  -0.58822
 Alpha  occ. eigenvalues --   -0.58377  -0.52668  -0.52374  -0.51443  -0.50575
 Alpha  occ. eigenvalues --   -0.50378  -0.48626  -0.48316  -0.47055  -0.46681
 Alpha  occ. eigenvalues --   -0.46191  -0.45249  -0.44328  -0.43930  -0.43123
 Alpha  occ. eigenvalues --   -0.43097  -0.42470  -0.41277  -0.40906  -0.40137
 Alpha  occ. eigenvalues --   -0.39535  -0.39001  -0.38115  -0.37746  -0.37201
 Alpha  occ. eigenvalues --   -0.36515  -0.36082  -0.35184  -0.34719  -0.34393
 Alpha  occ. eigenvalues --   -0.34065  -0.34015  -0.33872  -0.33299  -0.33214
 Alpha  occ. eigenvalues --   -0.32356  -0.31835  -0.30890  -0.28659  -0.27253
 Alpha  occ. eigenvalues --   -0.24753  -0.22303  -0.20560
 Alpha virt. eigenvalues --   -0.05005  -0.01555  -0.00742   0.00320   0.01161
 Alpha virt. eigenvalues --    0.02588   0.04596   0.04933   0.05103   0.05575
 Alpha virt. eigenvalues --    0.06627   0.07099   0.07254   0.07728   0.08270
 Alpha virt. eigenvalues --    0.08448   0.09268   0.09468   0.09852   0.10646
 Alpha virt. eigenvalues --    0.12130   0.12450   0.12890   0.13025   0.13739
 Alpha virt. eigenvalues --    0.14039   0.14304   0.14543   0.14822   0.15215
 Alpha virt. eigenvalues --    0.15549   0.16176   0.16685   0.17119   0.17859
 Alpha virt. eigenvalues --    0.18251   0.18498   0.18993   0.19772   0.20209
 Alpha virt. eigenvalues --    0.20859   0.21099   0.21372   0.22026   0.22780
 Alpha virt. eigenvalues --    0.23511   0.24045   0.24513   0.25425   0.26116
 Alpha virt. eigenvalues --    0.27144   0.28100   0.29028   0.29474   0.29726
 Alpha virt. eigenvalues --    0.30328   0.30850   0.31027   0.31265   0.31992
 Alpha virt. eigenvalues --    0.33127   0.33907   0.35295   0.35636   0.35804
 Alpha virt. eigenvalues --    0.36776   0.37308   0.37824   0.38018   0.38448
 Alpha virt. eigenvalues --    0.38938   0.39064   0.39833   0.39930   0.40261
 Alpha virt. eigenvalues --    0.40739   0.40831   0.41151   0.42379   0.42778
 Alpha virt. eigenvalues --    0.42893   0.43334   0.43789   0.44614   0.45178
 Alpha virt. eigenvalues --    0.45294   0.45828   0.46015   0.46850   0.47230
 Alpha virt. eigenvalues --    0.47361   0.47667   0.48407   0.49118   0.49440
 Alpha virt. eigenvalues --    0.50538   0.50806   0.52220   0.52759   0.53226
 Alpha virt. eigenvalues --    0.54167   0.55050   0.56440   0.57221   0.58016
 Alpha virt. eigenvalues --    0.58623   0.58972   0.59429   0.60707   0.61128
 Alpha virt. eigenvalues --    0.61396   0.61742   0.62250   0.62395   0.62818
 Alpha virt. eigenvalues --    0.63030   0.63231   0.63647   0.63886   0.64147
 Alpha virt. eigenvalues --    0.64362   0.64775   0.64963   0.65075   0.65415
 Alpha virt. eigenvalues --    0.65734   0.65835   0.65981   0.67028   0.67444
 Alpha virt. eigenvalues --    0.67799   0.67841   0.68178   0.68425   0.68750
 Alpha virt. eigenvalues --    0.69014   0.69246   0.69584   0.69785   0.70290
 Alpha virt. eigenvalues --    0.70614   0.70701   0.71407   0.71963   0.72147
 Alpha virt. eigenvalues --    0.72548   0.73212   0.73617   0.74097   0.74287
 Alpha virt. eigenvalues --    0.74856   0.75313   0.76054   0.77429   0.77930
 Alpha virt. eigenvalues --    0.78573   0.79767   0.80137   0.81448   0.82011
 Alpha virt. eigenvalues --    0.83113   0.83844   0.85915   0.86453   0.86843
 Alpha virt. eigenvalues --    0.87597   0.87834   0.88398   0.88652   0.89342
 Alpha virt. eigenvalues --    0.89530   0.91183   0.92424   0.93001   0.93793
 Alpha virt. eigenvalues --    0.94275   0.95036   0.95486   0.96857   0.97387
 Alpha virt. eigenvalues --    0.98106   0.99512   1.00269   1.00787   1.01483
 Alpha virt. eigenvalues --    1.01834   1.02456   1.02692   1.04765   1.06397
 Alpha virt. eigenvalues --    1.07157   1.07999   1.08512   1.09456   1.10042
 Alpha virt. eigenvalues --    1.11209   1.11608   1.12064   1.12719   1.13087
 Alpha virt. eigenvalues --    1.13578   1.17438   1.17439   1.18765   1.19443
 Alpha virt. eigenvalues --    1.20752   1.21895   1.23743   1.24772   1.25105
 Alpha virt. eigenvalues --    1.26882   1.27157   1.27683   1.28335   1.29071
 Alpha virt. eigenvalues --    1.30288   1.30489   1.31970   1.33021   1.33669
 Alpha virt. eigenvalues --    1.33985   1.35155   1.36499   1.38065   1.39418
 Alpha virt. eigenvalues --    1.39882   1.41102   1.41966   1.42694   1.43367
 Alpha virt. eigenvalues --    1.44520   1.44940   1.45769   1.46131   1.46556
 Alpha virt. eigenvalues --    1.46851   1.47386   1.48760   1.49195   1.49464
 Alpha virt. eigenvalues --    1.50278   1.53965   1.54489   1.55679   1.55984
 Alpha virt. eigenvalues --    1.56628   1.57209   1.57608   1.58837   1.58997
 Alpha virt. eigenvalues --    1.59897   1.60184   1.60908   1.61261   1.61984
 Alpha virt. eigenvalues --    1.62789   1.63291   1.63845   1.64890   1.65187
 Alpha virt. eigenvalues --    1.65941   1.67609   1.67778   1.68718   1.70813
 Alpha virt. eigenvalues --    1.70996   1.71923   1.72975   1.73549   1.73868
 Alpha virt. eigenvalues --    1.74186   1.75986   1.76702   1.77458   1.78428
 Alpha virt. eigenvalues --    1.79191   1.79601   1.80053   1.80531   1.81807
 Alpha virt. eigenvalues --    1.82689   1.82791   1.83262   1.83438   1.84334
 Alpha virt. eigenvalues --    1.84803   1.85392   1.85904   1.86299   1.86553
 Alpha virt. eigenvalues --    1.87975   1.88690   1.89000   1.89731   1.90966
 Alpha virt. eigenvalues --    1.91383   1.92304   1.92977   1.93099   1.93589
 Alpha virt. eigenvalues --    1.93967   1.94272   1.95101   1.95604   1.95843
 Alpha virt. eigenvalues --    1.96312   1.96979   1.97372   1.97889   1.99390
 Alpha virt. eigenvalues --    1.99858   2.00995   2.01445   2.02623   2.03645
 Alpha virt. eigenvalues --    2.04076   2.04914   2.05161   2.06115   2.06724
 Alpha virt. eigenvalues --    2.07631   2.09740   2.10002   2.10672   2.11456
 Alpha virt. eigenvalues --    2.12386   2.13177   2.13921   2.14998   2.16125
 Alpha virt. eigenvalues --    2.17235   2.19265   2.19513   2.20536   2.21516
 Alpha virt. eigenvalues --    2.23244   2.23833   2.24237   2.26575   2.27976
 Alpha virt. eigenvalues --    2.29143   2.30083   2.31597   2.32148   2.32828
 Alpha virt. eigenvalues --    2.34683   2.35171   2.35662   2.36518   2.37061
 Alpha virt. eigenvalues --    2.37442   2.38467   2.39106   2.39359   2.40815
 Alpha virt. eigenvalues --    2.41678   2.42060   2.43760   2.44312   2.47773
 Alpha virt. eigenvalues --    2.50745   2.51658   2.52453   2.52715   2.54360
 Alpha virt. eigenvalues --    2.55081   2.56003   2.56942   2.58019   2.58370
 Alpha virt. eigenvalues --    2.60732   2.62676   2.63569   2.64523   2.65258
 Alpha virt. eigenvalues --    2.66332   2.67633   2.68713   2.69350   2.69757
 Alpha virt. eigenvalues --    2.70277   2.71807   2.71880   2.72369   2.72652
 Alpha virt. eigenvalues --    2.73070   2.74674   2.74975   2.75933   2.76134
 Alpha virt. eigenvalues --    2.77341   2.78300   2.79752   2.80353   2.81443
 Alpha virt. eigenvalues --    2.81613   2.82456   2.82690   2.83357   2.84126
 Alpha virt. eigenvalues --    2.84664   2.84777   2.85188   2.85531   2.86311
 Alpha virt. eigenvalues --    2.86477   2.87120   2.87425   2.87953   2.88187
 Alpha virt. eigenvalues --    2.88579   2.89608   2.90712   2.92820   2.93026
 Alpha virt. eigenvalues --    2.93436   2.93746   2.94676   2.95842   2.97247
 Alpha virt. eigenvalues --    2.98220   2.98535   2.99213   3.00803   3.02572
 Alpha virt. eigenvalues --    3.04133   3.05288   3.06458   3.06740   3.07102
 Alpha virt. eigenvalues --    3.07464   3.07812   3.08286   3.08881   3.09993
 Alpha virt. eigenvalues --    3.11696   3.12874   3.13183   3.15501   3.19783
 Alpha virt. eigenvalues --    3.22515   3.24214   3.28431   3.29870   3.30986
 Alpha virt. eigenvalues --    3.35054   3.37075   3.39988   3.40874   3.43110
 Alpha virt. eigenvalues --    3.46280   3.48973   3.52447   3.58768   3.60649
 Alpha virt. eigenvalues --    3.63585   3.63711   3.64327   3.68784   3.76769
 Alpha virt. eigenvalues --    3.77192   3.85448   3.94740   4.08124   4.09341
 Alpha virt. eigenvalues --    4.10815   4.12936   4.13945   4.16699   4.17674
 Alpha virt. eigenvalues --    4.21391   4.21702   4.26163   4.27885   4.29129
 Alpha virt. eigenvalues --    4.29788   4.30414   4.31177   4.33275   4.34883
 Alpha virt. eigenvalues --    4.37260   4.40028   4.43672   4.44065   4.46295
 Alpha virt. eigenvalues --    4.52566   4.60855   4.63554   4.71706   4.84475
 Alpha virt. eigenvalues --    4.84881   7.83198   7.86486  17.20233  17.21359
 Alpha virt. eigenvalues --   17.45310  17.53118  17.54994  17.55902  23.44232
 Alpha virt. eigenvalues --   23.66613  23.76000  23.94271  23.96540  23.99404
 Alpha virt. eigenvalues --   24.03092  24.05866  24.07921  24.10474  24.12165
 Alpha virt. eigenvalues --   24.13300  24.14151  24.17465  24.18363  24.20257
 Alpha virt. eigenvalues --   24.21661  24.23891  24.24937  24.26354  24.34138
 Alpha virt. eigenvalues --   24.34199  24.34679 188.94647 188.97941
          Condensed to atoms (all electrons):
 Mulliken charges:
               1
     1  S    0.268514
     2  S    0.266684
     3  C   -0.002829
     4  C   -0.121196
     5  C   -0.069384
     6  C   -0.006092
     7  C   -0.013910
     8  C   -0.094842
     9  C   -0.066171
    10  C   -0.037557
    11  C   -0.210247
    12  C   -0.005280
    13  C   -0.174514
    14  C   -0.180818
    15  C    0.000406
    16  C   -0.206891
    17  C   -0.144164
    18  C   -0.174388
    19  C   -0.195481
    20  C   -0.180123
    21  C   -0.186365
    22  C   -0.177557
    23  C   -0.190778
    24  C   -0.210000
    25  C   -0.207642
    26  H    0.072688
    27  H    0.073088
    28  H    0.077881
    29  H    0.079403
    30  H    0.083870
    31  H    0.085553
    32  H    0.079347
    33  H    0.118038
    34  H    0.098710
    35  H    0.098761
    36  H    0.101887
    37  H    0.092467
    38  H    0.096171
    39  H    0.093378
    40  H    0.094583
    41  H    0.091263
    42  H    0.091808
    43  H    0.090768
    44  H    0.090992
    45  H    0.089621
    46  H    0.088699
    47  H    0.090346
    48  H    0.090611
    49  H    0.089883
    50  H    0.080357
    51  H    0.080454
 Sum of Mulliken charges =   0.00000
 Mulliken charges with hydrogens summed into heavy atoms:
               1
     1  S    0.268514
     2  S    0.266684
     3  C    0.069859
     4  C   -0.121196
     5  C    0.003704
     6  C    0.071789
     7  C    0.065492
     8  C   -0.010972
     9  C    0.019382
    10  C    0.041790
    11  C   -0.210247
    12  C   -0.005280
    13  C   -0.174514
    14  C   -0.180818
    15  C    0.000406
    16  C   -0.206891
    17  C    0.072584
    18  C    0.026260
    19  C   -0.006844
    20  C    0.007838
    21  C   -0.003294
    22  C    0.004203
    23  C   -0.012458
    24  C   -0.029043
    25  C    0.043052
 Electronic spatial extent (au):  <R**2>=          25527.9787
 Charge=              0.0000 electrons
 Dipole moment (field-independent basis, Debye):
    X=             -0.8849    Y=              0.0415    Z=              0.0354  Tot=              0.8865
 Quadrupole moment (field-independent basis, Debye-Ang):
   XX=           -147.5220   YY=           -155.4910   ZZ=           -168.8225
   XY=             -3.7207   XZ=             -2.0785   YZ=             -3.5240
 Traceless Quadrupole moment (field-independent basis, Debye-Ang):
   XX=              9.7565   YY=              1.7875   ZZ=            -11.5440
   XY=             -3.7207   XZ=             -2.0785   YZ=             -3.5240
 Octapole moment (field-independent basis, Debye-Ang**2):
  XXX=            120.4233  YYY=             -0.6170  ZZZ=              0.2511  XYY=              5.9217
  XXY=            -35.4835  XXZ=            -37.3075  XZZ=            -39.7089  YZZ=             -0.0462
  YYZ=             -0.2067  XYZ=             -4.6772
 Hexadecapole moment (field-independent basis, Debye-Ang**3):
 XXXX=         -31322.8560 YYYY=          -1785.6517 ZZZZ=           -437.8425 XXXY=           -169.4384
 XXXZ=            -46.1474 YYYX=            -65.4258 YYYZ=            -30.5639 ZZZX=             14.6321
 ZZZY=             -3.5249 XXYY=          -5563.1627 XXZZ=          -5692.4233 YYZZ=           -406.7663
 XXYZ=            -96.8656 YYXZ=             10.0797 ZZXY=             26.1424
 N-N= 2.186930802504D+03 E-N=-8.340604093143D+03  KE= 1.690520818113D+03
 No NMR shielding tensors so no spin-rotation constants.
 Leave Link  601 at Mon Jun  8 09:30:19 2020, MaxMem=  2013265920 cpu:               7.0 elap:               0.5
 (Enter /home/g09/g16a03/g16/l701.exe)
 ... and contract with generalized density number  0.
 Compute integral first derivatives.
 R6Disp: Adding Grimme-D3 dispersion energy 1st derivatives to the gradient.
 Leave Link  701 at Mon Jun  8 09:30:20 2020, MaxMem=  2013265920 cpu:               6.3 elap:               0.4
 (Enter /home/g09/g16a03/g16/l702.exe)
 L702 exits ... SP integral derivatives will be done elsewhere.
 Leave Link  702 at Mon Jun  8 09:30:20 2020, MaxMem=  2013265920 cpu:               0.5 elap:               0.1
 (Enter /home/g09/g16a03/g16/l703.exe)
 Integral derivatives from FoFJK, PRISM(SPDF).
 Compute integral first derivatives, UseDBF=F ICtDFT=           0.
 Calling FoFJK, ICntrl=      2127 FMM=F ISym2X=0 I1Cent= 0 IOpClX= 0 NMat=1 NMatS=1 NMatT=0.
 FoFJK:  IHMeth= 1 ICntrl=    2127 DoSepK=F KAlg= 0 I1Cent=           0 FoldK=F
 IRaf=         0 NMat=       1 IRICut=       1 DoRegI=T DoRafI=F ISym2E= 0 IDoP0=0 IntGTp=1.
 FoFCou: FMM=F IPFlag=           0 FMFlag=      100000 FMFlg1=         800
         NFxFlg=           0 DoJE=F BraDBF=F KetDBF=F FulRan=T
         wScrn=  0.000000 ICntrl=      2127 IOpCl=  0 I1Cent=           0 NGrid=           0
         NMat0=    1 NMatS0=      1 NMatT0=    0 NMatD0=    1 NMtDS0=    0 NMtDT0=    0
 Symmetry not used in FoFCou.
 Leave Link  703 at Mon Jun  8 09:30:42 2020, MaxMem=  2013265920 cpu:             427.8 elap:              21.5
 (Enter /home/g09/g16a03/g16/l716.exe)
 Dipole        =-3.48132723D-01 1.63092654D-02 1.39408442D-02
 ***** Axes restored to original set *****
 -------------------------------------------------------------------
 Center     Atomic                   Forces (Hartrees/Bohr)
 Number     Number              X              Y              Z
 -------------------------------------------------------------------
      1       16           0.014940549   -0.008272727    0.003801968
      2       16          -0.012929611    0.008086486   -0.001336124
      3        6          -0.122208712    0.072869778    0.039706321
      4        6          -0.001424582    0.002073057    0.002385833
      5        6           0.107179571   -0.054558527    0.083470915
      6        6           0.130180268   -0.075355047   -0.024077509
      7        6          -0.131292088    0.072016097    0.030623681
      8        6          -0.103021304    0.053135948   -0.094290804
      9        6           0.027324558   -0.024495698   -0.147560850
     10        6           0.123131287   -0.070204829   -0.043710364
     11        6           0.001953677   -0.002654930   -0.009256965
     12        6           0.007616034   -0.002652221    0.006108516
     13        6          -0.009301731    0.004811620    0.003821130
     14        6           0.006792255   -0.003276232   -0.005399051
     15        6           0.001972524   -0.000260391   -0.003800955
     16        6          -0.012501435    0.005467029    0.001190110
     17        6           0.056027839    0.063751463    0.068425596
     18        6          -0.049773061   -0.057752124   -0.053197799
     19        6           0.051512411    0.052626060    0.052454998
     20        6          -0.049654170   -0.054489928   -0.051561071
     21        6           0.041839747    0.051085526    0.053944360
     22        6          -0.041011709   -0.048762648   -0.048082138
     23        6           0.044558176    0.054055710    0.050543489
     24        6          -0.054946123   -0.029277991    0.022661234
     25        6          -0.010772350    0.006520684    0.036634685
     26        1           0.135646734   -0.079795148   -0.050454622
     27        1          -0.108783017    0.053832871   -0.110370461
     28        1          -0.135156153    0.079263712    0.048647336
     29        1           0.136241864   -0.076037268   -0.050107762
     30        1           0.107640932   -0.054031970    0.110494189
     31        1          -0.024725433    0.023440581    0.160678992
     32        1          -0.136546593    0.077578358    0.051579236
     33        1           0.008119271   -0.114056641   -0.009667444
     34        1          -0.096072931    0.030893913   -0.054505495
     35        1           0.095777967   -0.025730294    0.057883550
     36        1          -0.010150426    0.112693932    0.005135275
     37        1           0.000960821   -0.116239009   -0.003365715
     38        1          -0.095201800    0.031402509   -0.058123272
     39        1           0.095685974   -0.029172250    0.058870516
[...]
                 (A) (A) (A) (A) (A) (A) (A) (A) (A) (A) (A) (A)
                 (A) (A) (A) (A) (A) (A) (A) (A) (A) (A) (A) (A)
                 (A) (A) (A) (A) (A) (A) (A) (A) (A) (A) (A) (A)
                 (A) (A) (A) (A) (A) (A) (A) (A) (A) (A) (A) (A)
                 (A) (A) (A) (A) (A) (A) (A) (A) (A) (A) (A) (A)
                 (A) (A)
       Virtual   (A) (A) (A) (A) (A) (A) (A) (A) (A) (A) (A) (A)
                 (A) (A) (A) (A) (A) (A) (A) (A) (A) (A) (A) (A)
                 (A) (A) (A) (A) (A) (A) (A) (A) (A) (A) (A) (A)
                 (A) (A) (A) (A) (A) (A) (A) (A) (A) (A) (A) (A)
                 (A) (A) (A) (A) (A) (A) (A) (A) (A) (A) (A) (A)
                 (A) (A) (A) (A) (A) (A) (A) (A) (A) (A) (A) (A)
                 (A) (A) (A) (A) (A) (A) (A) (A) (A) (A) (A) (A)
                 (A) (A) (A) (A) (A) (A) (A) (A) (A) (A) (A) (A)
                 (A) (A) (A) (A) (A) (A) (A) (A) (A) (A) (A) (A)
                 (A) (A) (A) (A) (A) (A) (A) (A) (A) (A) (A) (A)
                 (A) (A) (A) (A) (A) (A) (A) (A) (A) (A) (A) (A)
                 (A) (A) (A) (A) (A) (A) (A) (A) (A) (A) (A) (A)
                 (A) (A) (A) (A) (A) (A) (A) (A) (A) (A) (A) (A)
                 (A) (A) (A) (A) (A) (A) (A) (A) (A) (A) (A) (A)
                 (A) (A) (A) (A) (A) (A) (A) (A) (A) (A) (A) (A)
                 (A) (A) (A) (A) (A) (A) (A) (A) (A) (A) (A) (A)
                 (A) (A) (A) (A) (A) (A) (A) (A) (A) (A) (A) (A)
                 (A) (A) (A) (A) (A) (A) (A) (A) (A) (A) (A) (A)
                 (A) (A) (A) (A) (A) (A) (A) (A) (A) (A) (A) (A)
                 (A) (A) (A) (A) (A) (A) (A) (A) (A) (A) (A) (A)
                 (A) (A) (A) (A) (A) (A) (A) (A) (A) (A) (A) (A)
                 (A) (A) (A) (A) (A) (A) (A) (A) (A) (A) (A) (A)
                 (A) (A) (A) (A) (A) (A) (A) (A) (A) (A) (A) (A)
                 (A) (A) (A) (A) (A) (A) (A) (A) (A) (A) (A) (A)
                 (A) (A) (A) (A) (A) (A) (A) (A) (A) (A) (A) (A)
                 (A) (A) (A) (A) (A) (A) (A) (A) (A) (A) (A) (A)
                 (A) (A) (A) (A) (A) (A) (A) (A) (A) (A) (A) (A)
                 (A) (A) (A) (A) (A) (A) (A) (A) (A) (A) (A) (A)
                 (A) (A) (A) (A) (A) (A) (A) (A) (A) (A) (A) (A)
                 (A) (A) (A) (A) (A) (A) (A) (A) (A) (A) (A) (A)
                 (A) (A) (A) (A) (A) (A) (A) (A) (A) (A) (A) (A)
                 (A) (A) (A) (A) (A) (A) (A) (A) (A) (A) (A) (A)
                 (A) (A) (A) (A) (A) (A) (A) (A) (A) (A) (A) (A)
                 (A) (A) (A) (A) (A) (A) (A) (A) (A) (A) (A) (A)
                 (A) (A) (A) (A) (A) (A) (A) (A) (A) (A) (A) (A)
                 (A) (A) (A) (A) (A) (A) (A) (A) (A) (A) (A) (A)
                 (A) (A) (A) (A) (A) (A) (A) (A) (A) (A) (A) (A)
                 (A) (A) (A) (A) (A) (A) (A) (A) (A) (A) (A) (A)
                 (A) (A) (A) (A) (A) (A) (A) (A) (A) (A) (A) (A)
                 (A) (A) (A) (A) (A) (A) (A) (A) (A) (A) (A) (A)
                 (A) (A) (A) (A) (A) (A) (A) (A) (A) (A) (A) (A)
                 (A) (A) (A) (A) (A) (A) (A) (A) (A) (A) (A) (A)
                 (A) (A) (A) (A) (A) (A) (A) (A) (A) (A) (A) (A)
                 (A) (A) (A) (A) (A) (A) (A) (A)
 The electronic state is 1-A.
 Alpha  occ. eigenvalues --  -88.87851 -88.87798 -10.21583 -10.21520 -10.21084
 Alpha  occ. eigenvalues --  -10.20985 -10.19781 -10.19568 -10.18783 -10.18728
 Alpha  occ. eigenvalues --  -10.18410 -10.18385 -10.18363 -10.18136 -10.17977
 Alpha  occ. eigenvalues --  -10.17712 -10.17583 -10.16926 -10.16627 -10.16426
 Alpha  occ. eigenvalues --  -10.16361 -10.16322 -10.16234 -10.16180 -10.15671
 Alpha  occ. eigenvalues --   -7.96450  -7.96396  -5.92788  -5.92735  -5.92434
 Alpha  occ. eigenvalues --   -5.92381  -5.91938  -5.91883  -0.91925  -0.88213
 Alpha  occ. eigenvalues --   -0.84685  -0.82063  -0.81453  -0.80098  -0.78375
 Alpha  occ. eigenvalues --   -0.77246  -0.76226  -0.73745  -0.73582  -0.71166
 Alpha  occ. eigenvalues --   -0.69731  -0.67631  -0.64278  -0.62115  -0.61452
 Alpha  occ. eigenvalues --   -0.59382  -0.58982  -0.58090  -0.57602  -0.57183
 Alpha  occ. eigenvalues --   -0.56671  -0.50758  -0.50340  -0.49214  -0.48716
 Alpha  occ. eigenvalues --   -0.47250  -0.46599  -0.45895  -0.45425  -0.44396
 Alpha  occ. eigenvalues --   -0.43782  -0.43701  -0.43343  -0.42879  -0.42211
 Alpha  occ. eigenvalues --   -0.41368  -0.41008  -0.40317  -0.40166  -0.39027
 Alpha  occ. eigenvalues --   -0.38414  -0.37756  -0.37400  -0.36776  -0.35924
 Alpha  occ. eigenvalues --   -0.35714  -0.35042  -0.34599  -0.34236  -0.34071
 Alpha  occ. eigenvalues --   -0.33943  -0.33495  -0.33269  -0.32764  -0.32632
 Alpha  occ. eigenvalues --   -0.32359  -0.32168  -0.30596  -0.28663  -0.27427
 Alpha  occ. eigenvalues --   -0.24784  -0.22628  -0.20911
 Alpha virt. eigenvalues --   -0.05268  -0.02059  -0.01335  -0.00599   0.00721
 Alpha virt. eigenvalues --    0.01776   0.03861   0.04039   0.04403   0.04660
 Alpha virt. eigenvalues --    0.05266   0.05634   0.05791   0.06140   0.06963
 Alpha virt. eigenvalues --    0.07140   0.07576   0.08174   0.08403   0.09136
 Alpha virt. eigenvalues --    0.10308   0.10596   0.11484   0.12058   0.12524
 Alpha virt. eigenvalues --    0.12962   0.13200   0.13390   0.13530   0.13706
 Alpha virt. eigenvalues --    0.14374   0.14433   0.15413   0.15605   0.15797
 Alpha virt. eigenvalues --    0.16112   0.16625   0.17879   0.18098   0.18569
 Alpha virt. eigenvalues --    0.18625   0.19547   0.19651   0.20532   0.20916
 Alpha virt. eigenvalues --    0.21256   0.22449   0.23051   0.23463   0.24777
 Alpha virt. eigenvalues --    0.25188   0.26007   0.27026   0.27582   0.27771
 Alpha virt. eigenvalues --    0.28532   0.28914   0.29443   0.29675   0.30008
 Alpha virt. eigenvalues --    0.30386   0.30948   0.31863   0.32699   0.33261
 Alpha virt. eigenvalues --    0.33949   0.34082   0.34381   0.35820   0.36314
 Alpha virt. eigenvalues --    0.36721   0.37477   0.37909   0.38554   0.38700
 Alpha virt. eigenvalues --    0.39019   0.39329   0.40507   0.40624   0.40860
 Alpha virt. eigenvalues --    0.41239   0.42082   0.42440   0.42953   0.43401
 Alpha virt. eigenvalues --    0.43598   0.44120   0.44609   0.45377   0.45608
 Alpha virt. eigenvalues --    0.45715   0.45940   0.46417   0.47081   0.47927
 Alpha virt. eigenvalues --    0.48688   0.49291   0.50001   0.51051   0.51771
 Alpha virt. eigenvalues --    0.52569   0.52693   0.53008   0.54025   0.54187
 Alpha virt. eigenvalues --    0.56337   0.56430   0.56823   0.57088   0.57383
 Alpha virt. eigenvalues --    0.57556   0.58030   0.58299   0.58549   0.58921
 Alpha virt. eigenvalues --    0.58963   0.59214   0.59306   0.59550   0.59812
 Alpha virt. eigenvalues --    0.59871   0.60159   0.60365   0.60686   0.61012
 Alpha virt. eigenvalues --    0.61195   0.61444   0.61691   0.62156   0.62680
 Alpha virt. eigenvalues --    0.62878   0.63044   0.63307   0.63693   0.63759
 Alpha virt. eigenvalues --    0.64184   0.64458   0.64599   0.65061   0.65494
 Alpha virt. eigenvalues --    0.66536   0.66677   0.67976   0.68403   0.69562
 Alpha virt. eigenvalues --    0.70881   0.72455   0.73286   0.73557   0.73820
 Alpha virt. eigenvalues --    0.74525   0.74591   0.74773   0.75761   0.76806
 Alpha virt. eigenvalues --    0.78201   0.78434   0.78928   0.80183   0.80395
 Alpha virt. eigenvalues --    0.81233   0.82370   0.82502   0.84274   0.86097
 Alpha virt. eigenvalues --    0.86609   0.87481   0.87721   0.88066   0.88376
 Alpha virt. eigenvalues --    0.89852   0.90120   0.90969   0.91635   0.92439
 Alpha virt. eigenvalues --    0.92920   0.93765   0.96639   0.96970   0.97907
 Alpha virt. eigenvalues --    0.98370   0.98893   0.99041   0.99217   0.99497
 Alpha virt. eigenvalues --    0.99743   1.00510   1.01490   1.02009   1.02634
 Alpha virt. eigenvalues --    1.03409   1.04460   1.05669   1.06061   1.07644
 Alpha virt. eigenvalues --    1.07800   1.09265   1.09808   1.10623   1.10677
 Alpha virt. eigenvalues --    1.11790   1.13123   1.15625   1.16800   1.17935
 Alpha virt. eigenvalues --    1.18474   1.19532   1.21127   1.22988   1.23931
 Alpha virt. eigenvalues --    1.24339   1.24638   1.25380   1.25538   1.26140
 Alpha virt. eigenvalues --    1.26236   1.27173   1.27347   1.27539   1.27931
 Alpha virt. eigenvalues --    1.31599   1.34144   1.36362   1.37653   1.39221
 Alpha virt. eigenvalues --    1.39789   1.41125   1.41774   1.42943   1.43013
 Alpha virt. eigenvalues --    1.44238   1.44732   1.45521   1.45664   1.46160
 Alpha virt. eigenvalues --    1.46429   1.47515   1.47717   1.48516   1.48759
 Alpha virt. eigenvalues --    1.49670   1.50236   1.51203   1.52947   1.53384
 Alpha virt. eigenvalues --    1.54357   1.54549   1.54777   1.55702   1.55993
 Alpha virt. eigenvalues --    1.56600   1.56904   1.58150   1.59016   1.59307
 Alpha virt. eigenvalues --    1.59872   1.60416   1.60582   1.61575   1.61637
 Alpha virt. eigenvalues --    1.61767   1.61963   1.62474   1.63247   1.64326
 Alpha virt. eigenvalues --    1.65051   1.66614   1.66760   1.67666   1.68465
 Alpha virt. eigenvalues --    1.69313   1.69871   1.70675   1.70802   1.71051
 Alpha virt. eigenvalues --    1.71398   1.72707   1.72982   1.73045   1.73407
 Alpha virt. eigenvalues --    1.73622   1.73958   1.74420   1.76133   1.76424
 Alpha virt. eigenvalues --    1.76691   1.78489   1.79205   1.79755   1.81827
 Alpha virt. eigenvalues --    1.82070   1.82537   1.83795   1.84014   1.84642
 Alpha virt. eigenvalues --    1.85338   1.85775   1.86184   1.86764   1.87740
 Alpha virt. eigenvalues --    1.88549   1.89569   1.90252   1.90578   1.91256
 Alpha virt. eigenvalues --    1.92407   1.92924   1.93508   1.93806   1.94508
 Alpha virt. eigenvalues --    1.95425   1.95929   1.96329   1.97355   1.98667
 Alpha virt. eigenvalues --    1.99262   1.99863   2.00044   2.00678   2.01877
 Alpha virt. eigenvalues --    2.02609   2.03380   2.03668   2.04288   2.05011
 Alpha virt. eigenvalues --    2.05456   2.06236   2.07086   2.09963   2.10371
 Alpha virt. eigenvalues --    2.10469   2.12026   2.13349   2.14148   2.15818
 Alpha virt. eigenvalues --    2.16220   2.17581   2.19774   2.20012   2.20972
 Alpha virt. eigenvalues --    2.24306   2.24674   2.25868   2.26522   2.27463
 Alpha virt. eigenvalues --    2.28042   2.29805   2.30060   2.31306   2.32522
 Alpha virt. eigenvalues --    2.32779   2.33578   2.33987   2.34312   2.34687
 Alpha virt. eigenvalues --    2.34944   2.35691   2.36194   2.36691   2.37903
 Alpha virt. eigenvalues --    2.38781   2.40394   2.41064   2.41870   2.42506
 Alpha virt. eigenvalues --    2.43724   2.47058   2.47654   2.47748   2.48673
 Alpha virt. eigenvalues --    2.50046   2.51665   2.52768   2.53012   2.53363
 Alpha virt. eigenvalues --    2.54579   2.54795   2.55878   2.56509   2.57160
 Alpha virt. eigenvalues --    2.57303   2.57724   2.59104   2.59747   2.59899
 Alpha virt. eigenvalues --    2.60303   2.60514   2.62166   2.62367   2.62832
 Alpha virt. eigenvalues --    2.63224   2.63391   2.64097   2.64419   2.66482
 Alpha virt. eigenvalues --    2.66971   2.67473   2.68015   2.68245   2.68924
 Alpha virt. eigenvalues --    2.69326   2.69821   2.70285   2.70830   2.71593
 Alpha virt. eigenvalues --    2.72057   2.72188   2.73019   2.73460   2.75165
 Alpha virt. eigenvalues --    2.76892   2.78215   2.79140   2.79756   2.80697
 Alpha virt. eigenvalues --    2.81815   2.82571   2.83218   2.83293   2.83471
 Alpha virt. eigenvalues --    2.83716   2.84413   2.85228   2.85616   2.86872
 Alpha virt. eigenvalues --    2.89042   2.89618   2.90969   2.93268   2.94019
 Alpha virt. eigenvalues --    2.95820   2.97186   2.97847   3.02166   3.04823
 Alpha virt. eigenvalues --    3.07079   3.07399   3.08852   3.10162   3.12850
 Alpha virt. eigenvalues --    3.17776   3.17939   3.20482   3.23193   3.25279
 Alpha virt. eigenvalues --    3.27256   3.31235   3.31698   3.34035   3.34993
 Alpha virt. eigenvalues --    3.37616   3.40267   3.41252   3.43357   3.45516
 Alpha virt. eigenvalues --    3.46355   3.52253   3.55695   3.57740   3.61886
 Alpha virt. eigenvalues --    3.66025   3.76478   3.76559   3.76935   3.79034
 Alpha virt. eigenvalues --    3.79542   3.79985   3.81732   3.82076   3.83227
 Alpha virt. eigenvalues --    3.83992   3.84530   3.87540   4.00361   4.02963
 Alpha virt. eigenvalues --    4.04362   4.05974   4.06298   4.09660   4.12426
 Alpha virt. eigenvalues --    4.13674   4.14908   4.19738   4.21760   4.28382
 Alpha virt. eigenvalues --    4.33728   4.36754   4.40369   4.59364   4.82018
 Alpha virt. eigenvalues --    4.83215   7.79585   7.83007  17.19887  17.20981
 Alpha virt. eigenvalues --   17.43702  17.51462  17.53409  17.53958  23.35980
 Alpha virt. eigenvalues --   23.54453  23.68664  23.84242  23.85693  23.86260
 Alpha virt. eigenvalues --   23.87128  23.87324  23.87549  23.87836  23.88303
 Alpha virt. eigenvalues --   23.89544  23.89916  23.92752  23.93806  23.94880
 Alpha virt. eigenvalues --   24.02172  24.03146  24.06849  24.09366  24.10009
 Alpha virt. eigenvalues --   24.16999  24.17599 188.90815 188.94255
          Condensed to atoms (all electrons):
 Mulliken charges:
               1
     1  S    0.261125
     2  S    0.263811
     3  C   -0.049871
     4  C   -0.072466
     5  C   -0.083344
     6  C   -0.034833
     7  C   -0.037399
     8  C   -0.109439
     9  C   -0.076288
    10  C   -0.074234
    11  C   -0.193788
    12  C    0.009196
    13  C   -0.173480
    14  C   -0.173323
    15  C    0.015988
    16  C   -0.191126
    17  C   -0.195341
    18  C   -0.182757
    19  C   -0.206575
    20  C   -0.201691
    21  C   -0.201600
    22  C   -0.200179
    23  C   -0.203162
    24  C   -0.221918
    25  C   -0.289297
    26  H    0.085214
    27  H    0.085566
    28  H    0.092073
    29  H    0.093853
    30  H    0.096531
    31  H    0.097235
    32  H    0.096111
    33  H    0.111566
    34  H    0.116132
    35  H    0.108556
    36  H    0.108875
    37  H    0.102721
    38  H    0.102371
    39  H    0.103012
    40  H    0.102673
    41  H    0.101187
    42  H    0.101043
    43  H    0.100991
    44  H    0.100824
    45  H    0.100253
    46  H    0.100173
    47  H    0.103361
    48  H    0.103436
    49  H    0.105836
    50  H    0.101222
    51  H    0.101176
 Sum of Mulliken charges =   0.00000
 Mulliken charges with hydrogens summed into heavy atoms:
               1
     1  S    0.261125
     2  S    0.263811
     3  C    0.035343
     4  C   -0.072466
     5  C    0.002222
     6  C    0.057240
     7  C    0.056454
     8  C   -0.012908
     9  C    0.020947
    10  C    0.021877
    11  C   -0.193788
    12  C    0.009196
    13  C   -0.173480
    14  C   -0.173323
    15  C    0.015988
    16  C   -0.191126
    17  C    0.032356
    18  C    0.034674
    19  C   -0.001483
    20  C    0.003994
    21  C    0.000630
    22  C    0.001636
    23  C   -0.002736
    24  C   -0.015120
    25  C    0.018937
 Electronic spatial extent (au):  <R**2>=          25847.7993
 Charge=              0.0000 electrons
 Dipole moment (field-independent basis, Debye):
    X=             -0.7387    Y=              0.0332    Z=             -0.0169  Tot=              0.7397
 Quadrupole moment (field-independent basis, Debye-Ang):
   XX=           -153.5979   YY=           -159.8077   ZZ=           -170.6262
   XY=             -4.0500   XZ=             -5.8890   YZ=             -4.4800
 Traceless Quadrupole moment (field-independent basis, Debye-Ang):
   XX=              7.7460   YY=              1.5362   ZZ=             -9.2823
   XY=             -4.0500   XZ=             -5.8890   YZ=             -4.4800
 Octapole moment (field-independent basis, Debye-Ang**2):
  XXX=            174.8981  YYY=              0.9734  ZZZ=              0.3397  XYY=              9.8878
  XXY=            -27.8893  XXZ=            -54.9420  XZZ=            -17.9921  YZZ=             -0.2335
  YYZ=              0.4786  XYZ=            -14.5699
 Hexadecapole moment (field-independent basis, Debye-Ang**3):
 XXXX=         -32953.1114 YYYY=          -1458.3095 ZZZZ=          -1118.7057 XXXY=           -287.1745
 XXXZ=           -422.3860 YYYX=            -61.4402 YYYZ=            -32.6276 ZZZX=              8.5670
 ZZZY=            -22.3895 XXYY=          -5715.7451 XXZZ=          -5927.5665 YYZZ=           -440.3724
 XXYZ=           -112.5687 YYXZ=             -3.7379 ZZXY=             37.1102
 N-N= 2.148409009536D+03 E-N=-8.258884134490D+03  KE= 1.683630624994D+03
 No NMR shielding tensors so no spin-rotation constants.
 Leave Link  601 at Mon Jun  8 09:51:58 2020, MaxMem=  2013265920 cpu:               5.8 elap:               0.3
 (Enter /home/g09/g16a03/g16/l9999.exe)

 Test job not archived.
 1\1\GINC-CMHPCT11\FOpt\RB3LYP\6-311G(d,p)\C23H26S2\CK834\08-Jun-2020\0
 \\#P TEST b3lyp/6-311G** EmpiricalDispersion=GD3 opt\\mono-C9-BTBT cif
  opt\\0,1\S,3.3053736277,2.3920476655,15.1536706776\S,1.1799919176,5.8
 026267159,16.471755293\C,2.7411442955,2.7264788917,12.4042282388\C,2.1
 29606971,3.4435924207,11.3776783571\C,1.3914401086,4.600815827,11.6954
 364703\C,1.2575630028,5.0438010063,13.0004024429\C,3.2298097723,3.1433
 695345,18.6214970914\C,3.098145544,3.5807002151,19.9304031868\C,2.3600
 626255,4.7358524081,20.2299417042\C,1.7439496415,5.4685124971,19.22241
 47257\C,1.8744752465,5.0315944425,17.9054281214\C,2.6173961916,3.86579
 59855,17.5874300605\C,2.5984160432,3.6331876934,16.173822589\C,1.88671
 16717,4.56136883,15.4530491344\C,1.869908033,4.3292474407,14.039336038
 1\C,2.6121200008,3.1654094112,13.7201614242\C,2.2996453444,3.021669190
 8,9.9372394184\C,3.4571532915,3.7582767568,9.2380029544\C,3.6342179486
 ,3.3454980054,7.7744511572\C,4.7834784817,4.0764452378,7.0737280397\C,
 4.9644927304,3.6649324036,5.6094620439\C,6.112458849,4.3969472758,4.90
 76611697\C,6.2941499668,3.9853872774,3.4436302053\C,7.4414954666,4.717
 3940659,2.7399066925\C,7.6133631132,4.2975682553,1.2774662017\H,3.3111
 801544,1.8320655443,12.1766411315\H,0.9142834395,5.1536846009,10.89303
 77307\H,0.680908552,5.9342669982,13.2242901316\H,3.8000879004,2.250717
 1123,18.3906454782\H,3.5699628103,3.025127582,20.732413707\H,2.2677830
 093,5.0628072011,21.2590461516\H,1.1743758055,6.3603015404,19.45613226
 89\H,2.4776846708,1.9422163279,9.8856175383\H,1.3711815798,3.210673830
 6,9.3867985357\H,4.3846946679,3.5696003357,9.791350235\H,3.2815054058,
 4.8388491761,9.2988021807\H,3.806740685,2.2627537305,7.7209056372\H,2.
 6998534094,3.5315815515,7.2291630228\H,5.7169865122,3.8913305927,7.620
 4100554\H,4.6099422298,5.1588758493,7.1272898615\H,5.1390342091,2.5825
 192635,5.5564043836\H,4.0302114424,3.8488421028,5.06336932\H,7.0465983
 824,4.2134157421,5.4541016957\H,5.9375963594,5.4793231498,4.9606121499
 \H,6.4697476745,2.9029616105,3.3901990037\H,5.359882329,4.1681888936,2
 .8967523076\H,7.2650796588,5.7986003786,2.7933987259\H,8.3744230999,4.
 5341386773,3.2867600075\H,8.4374612912,4.8340142471,0.7992083134\H,7.8
 223601593,3.2259981597,1.198204849\H,6.7048646764,4.4996263473,0.70124
 21393\\Version=ES64L-G16RevA.03\State=1-A\HF=-1688.8464931\RMSD=7.000e
 -09\RMSF=1.859e-06\Dipole=0.0713743,0.0076619,-0.282016\Quadrupole=-5.
 848668,-1.6987222,7.5473902,-5.4577235,1.6843065,0.8525722\PG=C01 [X(C
 23H26S2)]\\@


 NATURE WILL TELL YOU A DIRECT LIE IF SHE CAN.

                                -- CHARLES DARWIN
 Job cpu time:       0 days  7 hours 36 minutes 32.3 seconds.
 Elapsed time:       0 days  0 hours 22 minutes 56.7 seconds.
 File lengths (MBytes):  RWF=    243 Int=      0 D2E=      0 Chk=     30 Scr=      1
 Normal termination of Gaussian 16 at Mon Jun  8 09:51:58 2020.
